TITLE     = "AircraftModel"
VARIABLES = "X",
            "Y",
            "Z"


ZONE
T           = "wing_segment_from_wing_section_1_element_1_to_wing_section_2_element_1_symm; Col:1; Row:1; CS:0; Side:Lower"
I           = 28
J           = 22
DATAPACKING = BLOCK
ZONETYPE    = ORDERED
VARLOCATION = (NODAL, NODAL, NODAL)
AUXDATA CS  = ""
# X
       8.17318         8.17382         8.17569         8.17879          8.1831         8.18864         8.19538         8.20332         8.21245         8.22278  
       8.23428         8.24695         8.26077         8.27573         8.29182         8.30902         8.32732         8.34669         8.36712         8.38859  
       8.41108         8.43456         8.45902         8.48442         8.51075         8.53797         8.56607         8.59501         8.14827         8.14893  
       8.15087         8.15408         8.15855         8.16428         8.17126         8.17949         8.18896         8.19965         8.21157         8.22469  
       8.23901         8.25451         8.27118           8.289         8.30795         8.32802         8.34918         8.37142         8.39472         8.41905  
       8.44438          8.4707         8.49797         8.52618         8.55528         8.58526         8.12336         8.12404         8.12605         8.12937  
       8.13399         8.13993         8.14715         8.15566         8.16546         8.17652         8.18885         8.20243         8.21725         8.23328  
       8.25053         8.26897         8.28858         8.30935         8.33125         8.35426         8.37836         8.40353         8.42974         8.45698  
        8.4852         8.51438          8.5445         8.57552         8.09844         8.09915         8.10122         8.10466         8.10944         8.11557  
       8.12304         8.13184         8.14196          8.1534         8.16614         8.18017         8.19548         8.21206         8.22989         8.24894  
       8.26921         8.29068         8.31331         8.33709           8.362         8.38802         8.41511         8.44325         8.47242         8.50258  
       8.53371         8.56577         8.07353         8.07426          8.0764         8.07995         8.08489         8.09122         8.09893         8.10801  
       8.11846         8.13027         8.14343         8.15792         8.17372         8.19084         8.20924         8.22892         8.24984           8.272  
       8.29537         8.31992         8.34564          8.3725         8.40047         8.42953         8.45964         8.49078         8.52292         8.55602  
       8.04862         8.04937         8.05158         8.05524         8.06033         8.06686         8.07481         8.08418         8.09496         8.10714  
       8.12071         8.13566         8.15196         8.16962          8.1886         8.20889         8.23048         8.25333         8.27743         8.30276  
       8.32928         8.35699         8.38584         8.41581         8.44687         8.47898         8.51213         8.54627          8.0237         8.02448  
       8.02676         8.03053         8.03578         8.04251          8.0507         8.06036         8.07146         8.08402           8.098          8.1134  
        8.1302         8.14839         8.16796         8.18887         8.21111         8.23466         8.25949         8.28559         8.31293         8.34147  
        8.3712         8.40208         8.43409         8.46719         8.50134         8.53652         7.99879         7.99959         8.00194         8.00582  
       8.01122         8.01815         8.02659         8.03653         8.04797         8.06089         8.07529         8.09114         8.10844         8.12717  
       8.14731         8.16884         8.19174         8.21599         8.24156         8.26842         8.29657         8.32596         8.35657         8.38836  
       8.42131         8.45539         8.49055         8.52677         7.97388          7.9747         7.97711          7.9811         7.98667          7.9938  
       8.00248          8.0127         8.02447         8.03776         8.05257         8.06888         8.08668         8.10595         8.12667         8.14881  
       8.17237         8.19731         8.22362         8.25126         8.28021         8.31044         8.34193         8.37464         8.40854         8.44359  
       8.47976         8.51702         7.94896         7.94981         7.95229         7.95639         7.96211         7.96944         7.97836         7.98888  
       8.00097         8.01464         8.02986         8.04663         8.06492         8.08472         8.10602         8.12879           8.153         8.17864  
       8.20568         8.23409         8.26385         8.29493          8.3273         8.36092         8.39576         8.43179         8.46898         8.50727  
       7.92405         7.92492         7.92747         7.93168         7.93756         7.94508         7.95425         7.96505         7.97747         7.99151  
       8.00715         8.02437         8.04316          8.0635         8.08538         8.10876         8.13363         8.15997         8.18774         8.21692  
       8.24749         8.27942         8.31266         8.34719         8.38298         8.41999         8.45819         8.49753         7.89913         7.90003  
       7.90265         7.90697           7.913         7.92073         7.93014         7.94122         7.95397         7.96838         7.98443         8.00211  
        8.0214         8.04228         8.06473         8.08873         8.11426          8.1413          8.1698         8.19976         8.23113          8.2639  
       8.29802         8.33347         8.37021         8.40819          8.4474         8.48778         7.87422         7.87514         7.87782         7.88226  
       7.88845         7.89637         7.90603         7.91739         7.93048         7.94526         7.96172         7.97985         7.99964         8.02106  
       8.04409         8.06871          8.0949         8.12263         8.15187         8.18259         8.21478         8.24839         8.28339         8.31975  
       8.35743          8.3964         8.43661         8.47803         7.84931         7.85025           7.853         7.85755         7.86389         7.87202  
       7.88191         7.89357         7.90698         7.92213         7.93901          7.9576         7.97788         7.99983         8.02344         8.04868  
       8.07553         8.10395         8.13393         8.16542         8.19842         8.23287         8.26875         8.30603         8.34465          8.3846  
       8.42582         8.46828         7.82439         7.82536         7.82818         7.83284         7.83934         7.84766          7.8578         7.86974  
       7.88348           7.899          7.9163         7.93534         7.95611         7.97861          8.0028         8.02866         8.05616         8.08528  
       8.11599         8.14826         8.18206         8.21736         8.25412          8.2923         8.33188          8.3728         8.41503         8.45853  
       7.79948         7.80047         7.80336         7.80813         7.81479         7.82331         7.83369         7.84591         7.85998         7.87588  
       7.89358         7.91308         7.93435         7.95739         7.98215         8.00863         8.03679         8.06661         8.09805         8.13109  
        8.1657         8.20184         8.23948         8.27858          8.3191           8.361         8.40424         8.44878         7.77457         7.77558  
       7.77854         7.78342         7.79023         7.79895         7.80958         7.82209         7.83648         7.85275         7.87087         7.89082  
       7.91259         7.93616         7.96151          7.9886         8.01742         8.04794         8.08011         8.11392         8.14934         8.18633  
       8.22485         8.26486         8.30633          8.3492         8.39346         8.43903         7.74965         7.75069         7.75371         7.75871  
       7.76568          7.7746         7.78546         7.79826         7.81299         7.82962         7.84816         7.86857         7.89083         7.91494  
       7.94087         7.96858         7.99805         8.02926         8.06217         8.09676         8.13298         8.17081         8.21021         8.25114  
       8.29355         8.33741         8.38267         8.42929         7.72474          7.7258         7.72889           7.734         7.74112         7.75024  
       7.76135         7.77443         7.78949          7.8065         7.82544         7.84631         7.86907         7.89372         7.92022         7.94855  
       7.97868         8.01059         8.04424         8.07959         8.11663          8.1553         8.19558         8.23741         8.28077         8.32561  
       8.37188         8.41954         7.69983         7.70091         7.70407         7.70929         7.71657         7.72589         7.73724         7.75061  
       7.76599         7.78337         7.80273         7.82405         7.84731         7.87249         7.89958         7.92853         7.95932         7.99192  
        8.0263         8.06242         8.10027         8.13979         8.18094         8.22369           8.268         8.31381         8.36109         8.40979  
       7.67491         7.67602         7.67925         7.68458         7.69201         7.70153         7.71313         7.72678         7.74249         7.76024  
       7.78002         7.80179         7.82555         7.85127         7.87893          7.9085         7.93995         7.97325         8.00836         8.04526  
       8.08391         8.12427          8.1663         8.20997         8.25522         8.30201          8.3503         8.40004            7.65         7.65113  
       7.65442         7.65987         7.66746         7.67718         7.68901         7.70295         7.71899         7.73711          7.7573         7.77953  
       7.80379         7.83005         7.85829         7.88847         7.92058         7.95457         7.99042         8.02809         8.06755         8.10876  
       8.15167         8.19625         8.24244         8.29021         8.33951         8.39029  
# Y
      -10.4881        -10.4881        -10.4881        -10.4881        -10.4881        -10.4881        -10.4881        -10.4881        -10.4881        -10.4881  
      -10.4881        -10.4881        -10.4881        -10.4881        -10.4881        -10.4881        -10.4881        -10.4881        -10.4881        -10.4881  
      -10.4881        -10.4881        -10.4881        -10.4881        -10.4881        -10.4881        -10.4881        -10.4881         -10.163         -10.163  
       -10.163         -10.163         -10.163         -10.163         -10.163         -10.163         -10.163         -10.163         -10.163         -10.163  
       -10.163         -10.163         -10.163         -10.163         -10.163         -10.163         -10.163         -10.163         -10.163         -10.163  
       -10.163         -10.163         -10.163         -10.163         -10.163         -10.163        -9.83783        -9.83783        -9.83783        -9.83783  
      -9.83783        -9.83783        -9.83783        -9.83783        -9.83783        -9.83783        -9.83783        -9.83783        -9.83783        -9.83783  
      -9.83783        -9.83783        -9.83783        -9.83783        -9.83783        -9.83783        -9.83783        -9.83783        -9.83783        -9.83783  
      -9.83783        -9.83783        -9.83783        -9.83783         -9.5127         -9.5127         -9.5127         -9.5127         -9.5127         -9.5127  
       -9.5127         -9.5127         -9.5127         -9.5127         -9.5127         -9.5127         -9.5127         -9.5127         -9.5127         -9.5127  
       -9.5127         -9.5127         -9.5127         -9.5127         -9.5127         -9.5127         -9.5127         -9.5127         -9.5127         -9.5127  
       -9.5127         -9.5127        -9.18757        -9.18757        -9.18757        -9.18757        -9.18757        -9.18757        -9.18757        -9.18757  
      -9.18757        -9.18757        -9.18757        -9.18757        -9.18757        -9.18757        -9.18757        -9.18757        -9.18757        -9.18757  
      -9.18757        -9.18757        -9.18757        -9.18757        -9.18757        -9.18757        -9.18757        -9.18757        -9.18757        -9.18757  
      -8.86243        -8.86243        -8.86243        -8.86243        -8.86243        -8.86243        -8.86243        -8.86243        -8.86243        -8.86243  
      -8.86243        -8.86243        -8.86243        -8.86243        -8.86243        -8.86243        -8.86243        -8.86243        -8.86243        -8.86243  
      -8.86243        -8.86243        -8.86243        -8.86243        -8.86243        -8.86243        -8.86243        -8.86243         -8.5373         -8.5373  
       -8.5373         -8.5373         -8.5373         -8.5373         -8.5373         -8.5373         -8.5373         -8.5373         -8.5373         -8.5373  
       -8.5373         -8.5373         -8.5373         -8.5373         -8.5373         -8.5373         -8.5373         -8.5373         -8.5373         -8.5373  
       -8.5373         -8.5373         -8.5373         -8.5373         -8.5373         -8.5373        -8.21217        -8.21217        -8.21217        -8.21217  
      -8.21217        -8.21217        -8.21217        -8.21217        -8.21217        -8.21217        -8.21217        -8.21217        -8.21217        -8.21217  
      -8.21217        -8.21217        -8.21217        -8.21217        -8.21217        -8.21217        -8.21217        -8.21217        -8.21217        -8.21217  
      -8.21217        -8.21217        -8.21217        -8.21217        -7.88704        -7.88704        -7.88704        -7.88704        -7.88704        -7.88704  
      -7.88704        -7.88704        -7.88704        -7.88704        -7.88704        -7.88704        -7.88704        -7.88704        -7.88704        -7.88704  
      -7.88704        -7.88704        -7.88704        -7.88704        -7.88704        -7.88704        -7.88704        -7.88704        -7.88704        -7.88704  
      -7.88704        -7.88704        -7.56191        -7.56191        -7.56191        -7.56191        -7.56191        -7.56191        -7.56191        -7.56191  
      -7.56191        -7.56191        -7.56191        -7.56191        -7.56191        -7.56191        -7.56191        -7.56191        -7.56191        -7.56191  
      -7.56191        -7.56191        -7.56191        -7.56191        -7.56191        -7.56191        -7.56191        -7.56191        -7.56191        -7.56191  
      -7.23678        -7.23678        -7.23678        -7.23678        -7.23678        -7.23678        -7.23678        -7.23678        -7.23678        -7.23678  
      -7.23678        -7.23678        -7.23678        -7.23678        -7.23678        -7.23678        -7.23678        -7.23678        -7.23678        -7.23678  
      -7.23678        -7.23678        -7.23678        -7.23678        -7.23678        -7.23678        -7.23678        -7.23678        -6.91165        -6.91165  
      -6.91165        -6.91165        -6.91165        -6.91165        -6.91165        -6.91165        -6.91165        -6.91165        -6.91165        -6.91165  
      -6.91165        -6.91165        -6.91165        -6.91165        -6.91165        -6.91165        -6.91165        -6.91165        -6.91165        -6.91165  
      -6.91165        -6.91165        -6.91165        -6.91165        -6.91165        -6.91165        -6.58652        -6.58652        -6.58652        -6.58652  
      -6.58652        -6.58652        -6.58652        -6.58652        -6.58652        -6.58652        -6.58652        -6.58652        -6.58652        -6.58652  
      -6.58652        -6.58652        -6.58652        -6.58652        -6.58652        -6.58652        -6.58652        -6.58652        -6.58652        -6.58652  
      -6.58652        -6.58652        -6.58652        -6.58652        -6.26139        -6.26139        -6.26139        -6.26139        -6.26139        -6.26139  
      -6.26139        -6.26139        -6.26139        -6.26139        -6.26139        -6.26139        -6.26139        -6.26139        -6.26139        -6.26139  
      -6.26139        -6.26139        -6.26139        -6.26139        -6.26139        -6.26139        -6.26139        -6.26139        -6.26139        -6.26139  
      -6.26139        -6.26139        -5.93626        -5.93626        -5.93626        -5.93626        -5.93626        -5.93626        -5.93626        -5.93626  
      -5.93626        -5.93626        -5.93626        -5.93626        -5.93626        -5.93626        -5.93626        -5.93626        -5.93626        -5.93626  
      -5.93626        -5.93626        -5.93626        -5.93626        -5.93626        -5.93626        -5.93626        -5.93626        -5.93626        -5.93626  
      -5.61113        -5.61113        -5.61113        -5.61113        -5.61113        -5.61113        -5.61113        -5.61113        -5.61113        -5.61113  
      -5.61113        -5.61113        -5.61113        -5.61113        -5.61113        -5.61113        -5.61113        -5.61113        -5.61113        -5.61113  
      -5.61113        -5.61113        -5.61113        -5.61113        -5.61113        -5.61113        -5.61113        -5.61113          -5.286          -5.286  
        -5.286          -5.286          -5.286          -5.286          -5.286          -5.286          -5.286          -5.286          -5.286          -5.286  
        -5.286          -5.286          -5.286          -5.286          -5.286          -5.286          -5.286          -5.286          -5.286          -5.286  
        -5.286          -5.286          -5.286          -5.286          -5.286          -5.286        -4.96087        -4.96087        -4.96087        -4.96087  
      -4.96087        -4.96087        -4.96087        -4.96087        -4.96087        -4.96087        -4.96087        -4.96087        -4.96087        -4.96087  
      -4.96087        -4.96087        -4.96087        -4.96087        -4.96087        -4.96087        -4.96087        -4.96087        -4.96087        -4.96087  
      -4.96087        -4.96087        -4.96087        -4.96087        -4.63574        -4.63574        -4.63574        -4.63574        -4.63574        -4.63574  
      -4.63574        -4.63574        -4.63574        -4.63574        -4.63574        -4.63574        -4.63574        -4.63574        -4.63574        -4.63574  
      -4.63574        -4.63574        -4.63574        -4.63574        -4.63574        -4.63574        -4.63574        -4.63574        -4.63574        -4.63574  
      -4.63574        -4.63574         -4.3106         -4.3106         -4.3106         -4.3106         -4.3106         -4.3106         -4.3106         -4.3106  
       -4.3106         -4.3106         -4.3106         -4.3106         -4.3106         -4.3106         -4.3106         -4.3106         -4.3106         -4.3106  
       -4.3106         -4.3106         -4.3106         -4.3106         -4.3106         -4.3106         -4.3106         -4.3106         -4.3106         -4.3106  
      -3.98547        -3.98547        -3.98547        -3.98547        -3.98547        -3.98547        -3.98547        -3.98547        -3.98547        -3.98547  
      -3.98547        -3.98547        -3.98547        -3.98547        -3.98547        -3.98547        -3.98547        -3.98547        -3.98547        -3.98547  
      -3.98547        -3.98547        -3.98547        -3.98547        -3.98547        -3.98547        -3.98547        -3.98547        -3.66034        -3.66034  
      -3.66034        -3.66034        -3.66034        -3.66034        -3.66034        -3.66034        -3.66034        -3.66034        -3.66034        -3.66034  
      -3.66034        -3.66034        -3.66034        -3.66034        -3.66034        -3.66034        -3.66034        -3.66034        -3.66034        -3.66034  
      -3.66034        -3.66034        -3.66034        -3.66034        -3.66034        -3.66034  
# Z
             2         1.99735          1.9936          1.9898         1.98604         1.98243          1.9793         1.97671         1.97418         1.97181  
       1.96945         1.96739         1.96553         1.96352          1.9614         1.95954         1.95765         1.95575         1.95414         1.95261  
       1.95078         1.94896         1.94724         1.94558         1.94406         1.94275         1.94151         1.94066               2          1.9972  
       1.99324         1.98922         1.98525         1.98144         1.97812         1.97539         1.97271         1.97021         1.96772         1.96554  
       1.96356         1.96144          1.9592         1.95723         1.95523         1.95322         1.95151         1.94989         1.94795         1.94603  
       1.94421         1.94245         1.94084         1.93945         1.93814         1.93723               2         1.99705         1.99288         1.98864  
       1.98446         1.98044         1.97695         1.97407         1.97124         1.96861         1.96598         1.96368          1.9616         1.95936  
         1.957         1.95492         1.95281         1.95069         1.94889         1.94718         1.94513          1.9431         1.94118         1.93932  
       1.93762         1.93616         1.93477          1.9338               2          1.9969         1.99252         1.98806         1.98367         1.97945  
       1.97578         1.97275         1.96978           1.967         1.96424         1.96182         1.95964         1.95728         1.95479         1.95261  
       1.95039         1.94816         1.94626         1.94446         1.94231         1.94017         1.93815         1.93619          1.9344         1.93286  
       1.93139         1.93038               2         1.99675         1.99216         1.98749         1.98288         1.97845          1.9746         1.97143  
       1.96831          1.9654         1.96251         1.95997         1.95768         1.95521         1.95259          1.9503         1.94797         1.94563  
       1.94364         1.94175         1.93948         1.93724         1.93512         1.93306         1.93118         1.92956         1.92802         1.92695  
             2          1.9966         1.99179         1.98691         1.98208         1.97746         1.97343         1.97011         1.96685          1.9638  
       1.96077         1.95811         1.95571         1.95313         1.95039         1.94799         1.94555          1.9431         1.94101         1.93903  
       1.93666         1.93431         1.93209         1.92993         1.92796         1.92626         1.92464         1.92352               2         1.99645  
       1.99143         1.98633         1.98129         1.97646         1.97226         1.96879         1.96538          1.9622         1.95904         1.95626  
       1.95375         1.95105         1.94819         1.94568         1.94313         1.94057         1.93839         1.93632         1.93384         1.93138  
       1.92906          1.9268         1.92474         1.92296         1.92127         1.92009               2          1.9963         1.99107         1.98575  
        1.9805         1.97547         1.97108         1.96747         1.96391          1.9606          1.9573          1.9544         1.95179         1.94897  
       1.94599         1.94337         1.94071         1.93804         1.93576          1.9336         1.93101         1.92845         1.92603         1.92367  
       1.92151         1.91966         1.91789         1.91667               2         1.99615         1.99071         1.98518         1.97971         1.97447  
       1.96991         1.96614         1.96245           1.959         1.95556         1.95255         1.94982         1.94689         1.94379         1.94106  
       1.93829         1.93551         1.93314         1.93089         1.92819         1.92552           1.923         1.92054         1.91829         1.91636  
       1.91452         1.91324               2           1.996         1.99035          1.9846         1.97892         1.97348         1.96874         1.96482  
       1.96098          1.9574         1.95383         1.95069         1.94786         1.94481         1.94158         1.93875         1.93587         1.93298  
       1.93051         1.92817         1.92537         1.92259         1.91996         1.91741         1.91507         1.91306         1.91115         1.90981  
             2         1.99585         1.98998         1.98402         1.97813         1.97248         1.96756          1.9635         1.95952         1.95579  
       1.95209         1.94884          1.9459         1.94273         1.93938         1.93644         1.93345         1.93045         1.92789         1.92545  
       1.92254         1.91966         1.91693         1.91427         1.91185         1.90976         1.90777         1.90638               2          1.9957  
       1.98962         1.98344         1.97734         1.97149         1.96639         1.96218         1.95805         1.95419         1.95035         1.94698  
       1.94394         1.94065         1.93718         1.93413         1.93103         1.92792         1.92526         1.92274         1.91972         1.91673  
        1.9139         1.91114         1.90863         1.90646          1.9044         1.90296               2         1.99555         1.98926         1.98287  
       1.97655         1.97049         1.96522         1.96086         1.95659         1.95259         1.94862         1.94513         1.94197         1.93857  
       1.93498         1.93182         1.92861         1.92539         1.92264         1.92002          1.9169          1.9138         1.91087         1.90801  
       1.90541         1.90316         1.90102         1.89953               2          1.9954          1.9889         1.98229         1.97576          1.9695  
       1.96404         1.95954         1.95512         1.95099         1.94688         1.94327         1.94001         1.93649         1.93278         1.92951  
       1.92619         1.92286         1.92001         1.91731         1.91407         1.91087         1.90784         1.90488         1.90219         1.89987  
       1.89765          1.8961               2         1.99525         1.98854         1.98171         1.97497          1.9685         1.96287         1.95822  
       1.95365         1.94939         1.94514         1.94142         1.93805         1.93442         1.93058          1.9272         1.92377         1.92033  
       1.91739         1.91459         1.91125         1.90794         1.90481         1.90175         1.89897         1.89657         1.89428         1.89267  
             2          1.9951         1.98818         1.98113         1.97418         1.96751          1.9617          1.9569         1.95219         1.94779  
       1.94341         1.93956         1.93608         1.93234         1.92837         1.92489         1.92135          1.9178         1.91476         1.91188  
       1.90843         1.90501         1.90178         1.89862         1.89575         1.89327          1.8909         1.88925               2         1.99495  
       1.98781         1.98056         1.97339         1.96651         1.96052         1.95558         1.95072         1.94619         1.94167         1.93771  
       1.93412         1.93026         1.92617         1.92258         1.91893         1.91527         1.91214         1.90916         1.90561         1.90208  
       1.89875         1.89549         1.89253         1.88997         1.88753         1.88582               2          1.9948         1.98745         1.97998  
        1.9726         1.96552         1.95935         1.95426         1.94926         1.94459         1.93993         1.93585         1.93216         1.92818  
       1.92397         1.92027         1.91651         1.91274         1.90951         1.90645         1.90278         1.89915         1.89571         1.89236  
       1.88931         1.88667         1.88415         1.88239               2         1.99465         1.98709          1.9794         1.97181         1.96452  
       1.95818         1.95294         1.94779         1.94298          1.9382           1.934         1.93019          1.9261         1.92177         1.91796  
       1.91409         1.91021         1.90689         1.90373         1.89996         1.89622         1.89268         1.88923         1.88609         1.88337  
       1.88078         1.87896               2          1.9945         1.98673         1.97882         1.97102         1.96353           1.957         1.95161  
       1.94633         1.94138         1.93646         1.93214         1.92823         1.92402         1.91957         1.91565         1.91167         1.90768  
       1.90426         1.90101         1.89714         1.89329         1.88965          1.8861         1.88287         1.88007          1.8774         1.87554  
             2         1.99435         1.98637         1.97825         1.97023         1.96253         1.95583         1.95029         1.94486         1.93978  
       1.93473         1.93029         1.92627         1.92194         1.91737         1.91334         1.90925         1.90515         1.90163          1.8983  
       1.89431         1.89036         1.88662         1.88297         1.87965         1.87677         1.87403         1.87211               2          1.9942  
         1.986         1.97767         1.96944         1.96154         1.95466         1.94897         1.94339         1.93818         1.93299         1.92843  