TITLE     = "AircraftModel"
VARIABLES = "X",
            "Y",
            "Z",
            "CD",
            "CS",
            "CL",
            "CMD",
            "CMS",
            "CML",
            "RefArea",
            "RefLength"


ZONE
T           = "AeroCase:'AC_1'; Alt:8000; M:0.44; Re:9.1389e+06; AoS:0; AoA:3.46919 Wing:'wing'"
I           = 68
DATAPACKING = POINT
ZONETYPE    = ORDERED
AUXDATA CS  = ""
       8.48237        -10.3255         2.00281       0.0121167    -0.000824536        0.260307      0.00890053      -0.0417381     -0.00127832        0.418309         1.28659
       8.46881        -10.0004         2.00291       0.0170229     -0.00163291        0.472259      0.00241517      -0.0711472     0.000137462        0.433075         1.33199
       8.45524        -9.67526           2.003       0.0155239     -0.00203575        0.557637      0.00172682      -0.0799108     1.57397e-05        0.447834          1.3774
       8.44168        -9.35013          2.0031        0.014997     -0.00234111        0.614402      0.00126228      -0.0854626      6.6408e-05        0.462595          1.4228
       8.42812          -9.025          2.0032       0.0143262     -0.00257472        0.653943     0.000996734      -0.0892475     8.90321e-05        0.477358          1.4682
       8.41456        -8.69987          2.0033       0.0137517     -0.00275717         0.68302     0.000822363      -0.0920965     0.000105145         0.49212         1.51361
       8.40099        -8.37474          2.0034       0.0132993     -0.00290132        0.705127     0.000699887      -0.0943733     0.000116404        0.506882         1.55901
       8.38743        -8.04961          2.0035       0.0129692     -0.00301607        0.722338     0.000609159      -0.0962712     0.000124303        0.521642         1.60441
       8.37387        -7.72448          2.0036       0.0127495     -0.00310765        0.735967     0.000539121       -0.097902     0.000129745        0.536405         1.64981
        8.3603        -7.39935          2.0037       0.0126259     -0.00318159        0.746887       0.0004832      -0.0993349     0.000132874        0.551167         1.69522
       8.34674        -7.07421          2.0038       0.0125846      -0.0032396        0.755704     0.000437376       -0.100615     0.000135145        0.565929         1.74062
       8.33318        -6.74909          2.0039       0.0126134     -0.00328497        0.762848     0.000398947       -0.101775     0.000135991        0.580689         1.78602
       8.31962        -6.42396           2.004       0.0127023     -0.00332068        0.768637      0.00036615       -0.102836     0.000135725        0.595453         1.83143
       8.30605        -6.09882         2.00409       0.0128431      -0.0033475         0.77331     0.000337748       -0.103817      0.00013452        0.610215         1.87683
       8.29249        -5.77369         2.00419       0.0130297     -0.00336689        0.777053     0.000312887        -0.10473     0.000132597        0.624977         1.92223
       8.27893        -5.44856         2.00429       0.0132578     -0.00338057        0.780014     0.000290936       -0.105587     0.000129542        0.639737         1.96763
       8.26536        -5.12343         2.00439       0.0135253     -0.00338663        0.782317     0.000271542       -0.106399     0.000126656        0.654501         2.01304
        8.2518         -4.7983         2.00449        0.013834      -0.0033879        0.784071     0.000254341       -0.107172     0.000122619        0.669262         2.05844
       8.23824        -4.47317         2.00459       0.0141949     -0.00338295        0.785374     0.000239117       -0.107908      0.00011749        0.684024         2.10384
       8.22467        -4.14804         2.00469       0.0146528     -0.00336738        0.786304     0.000225164       -0.108581     0.000110427        0.698784         2.14925
       8.21111        -3.82291         2.00479       0.0174659     -0.00314341        0.786149     0.000173129       -0.108755    -3.37516e-05        0.713548         2.19465
       8.20433        -3.50347         2.00401        0.018083      0.00651055        0.794213     0.000343976       -0.109376       0.0024111         0.69572         2.21733
       8.20432        -3.18972         2.00235       0.0169561      0.00661656        0.810279     0.000309948       -0.110307      0.00233864         0.69571         2.21729
       8.20432        -2.87597         2.00069       0.0180203      0.00670166         0.82506     0.000311594       -0.110705      0.00236052        0.695702         2.21727
       8.20432        -2.56222         1.99903       0.0192781      0.00678271        0.839248     0.000314157       -0.111005      0.00238056        0.695703         2.21727
       8.20432        -2.24848         1.99737       0.0205494      0.00686118        0.852994     0.000316837       -0.111324      0.00239847        0.695712         2.21729
       8.20433        -1.93473         1.99571       0.0219218      0.00693763         0.86611     0.000316832       -0.111646      0.00241726        0.695723         2.21733
       8.20434        -1.62098         1.99405       0.0233857      0.00700753        0.878399     0.000314671       -0.111953      0.00243383        0.695742         2.21739
       8.20435        -1.30723          1.9924        0.024948      0.00707273        0.889667     0.000310082       -0.112237      0.00244966        0.695769         2.21748
       8.20437       -0.993482         1.99074       0.0266182       0.0071302        0.899678     0.000302271       -0.112493      0.00246294        0.695799         2.21758
       8.20439       -0.679734         1.98908       0.0284112       0.0071801        0.908124     0.000290272       -0.112726      0.00247471        0.695837          2.2177
       8.20441       -0.365986         1.98742       0.0303365      0.00721741        0.914604     0.000273129       -0.112971       0.0024842        0.695881         2.21784
       8.20443       -0.156833         1.98631       0.0317315      0.00724124        0.917946     0.000221618       -0.113278      0.00251098        0.231911         2.21794
       8.20444      -0.0522779         1.98576       0.0327035      0.00731457        0.924052     0.000297495       -0.115182      0.00254061        0.231917           2.218
       8.20444       0.0522779         1.98576       0.0327035     -0.00731457        0.924052    -0.000297495       -0.115182     -0.00254061        0.231917           2.218
       8.20443        0.156833         1.98631       0.0317315     -0.00724124        0.917946    -0.000221618       -0.113278     -0.00251098        0.231911         2.21794
       8.20441        0.365986         1.98742       0.0303365     -0.00721741        0.914604    -0.000273129       -0.112971      -0.0024842        0.695881         2.21784
       8.20439        0.679734         1.98908       0.0284112      -0.0071801        0.908124    -0.000290272       -0.112726     -0.00247471        0.695837          2.2177
       8.20437        0.993482         1.99074       0.0266182      -0.0071302        0.899678    -0.000302271       -0.112493     -0.00246294        0.695799         2.21758
       8.20435         1.30723          1.9924        0.024948     -0.00707273        0.889667    -0.000310082       -0.112237     -0.00244966        0.695769         2.21748
       8.20434         1.62098         1.99405       0.0233857     -0.00700753        0.878399    -0.000314671       -0.111953     -0.00243383        0.695742         2.21739
       8.20433         1.93473         1.99571       0.0219218     -0.00693763         0.86611    -0.000316832       -0.111646     -0.00241726        0.695723         2.21733
       8.20432         2.24848         1.99737       0.0205494     -0.00686118        0.852994    -0.000316837       -0.111324     -0.00239847        0.695712         2.21729
       8.20432         2.56222         1.99903       0.0192781     -0.00678271        0.839248    -0.000314157       -0.111005     -0.00238056        0.695703         2.21727
       8.20432         2.87597         2.00069       0.0180203     -0.00670166         0.82506    -0.000311594       -0.110705     -0.00236052        0.695702         2.21727
       8.20432         3.18972         2.00235       0.0169561     -0.00661656        0.810279    -0.000309948       -0.110307     -0.00233864         0.69571         2.21729
       8.20433         3.50347         2.00401        0.018083     -0.00651055        0.794213    -0.000343976       -0.109376      -0.0024111         0.69572         2.21733
       8.21111         3.82291         2.00479       0.0174659      0.00314341        0.786149    -0.000173129       -0.108755     3.37516e-05        0.713548         2.19465
       8.22467         4.14804         2.00469       0.0146528      0.00336738        0.786304    -0.000225164       -0.108581    -0.000110427        0.698784         2.14925
       8.23824         4.47317         2.00459       0.0141949      0.00338295        0.785374    -0.000239117       -0.107908     -0.00011749        0.684024         2.10384
        8.2518          4.7983         2.00449        0.013834       0.0033879        0.784071    -0.000254341       -0.107172    -0.000122619        0.669262         2.05844
       8.26536         5.12343         2.00439       0.0135253      0.00338663        0.782317    -0.000271542       -0.106399    -0.000126656        0.654501         2.01304
       8.27893         5.44856         2.00429       0.0132578      0.00338057        0.780014    -0.000290936       -0.105587    -0.000129542        0.639737         1.96763
       8.29249         5.77369         2.00419       0.0130297      0.00336689        0.777053    -0.000312887        -0.10473    -0.000132597        0.624977         1.92223
       8.30605         6.09882         2.00409       0.0128431       0.0033475         0.77331    -0.000337748       -0.103817     -0.00013452        0.610215         1.87683
       8.31962         6.42396           2.004       0.0127023      0.00332068        0.768637     -0.00036615       -0.102836    -0.000135725        0.595453         1.83143
       8.33318         6.74909          2.0039       0.0126134      0.00328497        0.762848    -0.000398947       -0.101775    -0.000135991        0.580689         1.78602
       8.34674         7.07421          2.0038       0.0125846       0.0032396        0.755704    -0.000437376       -0.100615    -0.000135145        0.565929         1.74062
        8.3603         7.39935          2.0037       0.0126259      0.00318159        0.746887      -0.0004832      -0.0993349    -0.000132874        0.551167         1.69522
       8.37387         7.72448          2.0036       0.0127495      0.00310765        0.735967    -0.000539121       -0.097902    -0.000129745        0.536405         1.64981
       8.38743         8.04961          2.0035       0.0129692      0.00301607        0.722338    -0.000609159      -0.0962712    -0.000124303        0.521642         1.60441
       8.40099         8.37474          2.0034       0.0132993      0.00290132        0.705127    -0.000699887      -0.0943733    -0.000116404        0.506882         1.55901
       8.41456         8.69987          2.0033       0.0137517      0.00275717         0.68302    -0.000822363      -0.0920965    -0.000105145         0.49212         1.51361
       8.42812           9.025          2.0032       0.0143262      0.00257472        0.653943    -0.000996734      -0.0892475    -8.90321e-05        0.477358          1.4682
       8.44168         9.35013          2.0031        0.014997      0.00234111        0.614402     -0.00126228      -0.0854626     -6.6408e-05        0.462595          1.4228
       8.45524         9.67526           2.003       0.0155239      0.00203575        0.557637     -0.00172682      -0.0799108    -1.57397e-05        0.447834          1.3774
       8.46881         10.0004         2.00291       0.0170229      0.00163291        0.472259     -0.00241517      -0.0711472    -0.000137462        0.433075         1.33199
       8.48237         10.3255         2.00281       0.0121167     0.000824536        0.260307     -0.00890053      -0.0417381      0.00127832        0.418309         1.28659


ZONE
T           = "AeroCase:'AC_1'; Alt:8000; M:0.44; Re:9.1389e+06; AoS:0; AoA:3.46919 Wing:'htp'"
I           = 11
DATAPACKING = POINT
ZONETYPE    = ORDERED
AUXDATA CS  = ""
       20.0393        -2.82609             5.3      0.00370764    -0.000226437       0.0893567       0.0126295      0.00170986     -0.00066096         1.11402          1.0169
       19.8912        -1.73058             5.3      0.00497323     -0.00027649        0.116529      0.00115155      0.00015582    -4.99966e-05         1.45881         1.33162
       19.7431       -0.635068             5.3      0.00473897    -0.000207078        0.104148     0.000310906     4.23626e-05    -4.92854e-05         1.80359         1.64635
       19.6687      -0.0852651             5.3      0.00528319    -7.25703e-05       0.0968154     2.02844e-10     6.60645e-11    -4.77814e-09      0.00738448          1.8043
       19.6654      -0.0604636             5.3       0.0057711    -3.33625e-06        0.096416     -1.1829e-07     5.37062e-09    -2.60802e-06       0.0824383         1.81142
       19.6597      -0.0188542             5.3       0.0132238      0.00102019       0.0953363    -2.79218e-06    -3.12231e-09    -4.56767e-05       0.0687568         1.82338
       19.6598       0.0189449             5.3       0.0131803     -0.00101334       0.0953402     2.79185e-06    -3.05855e-09     4.56787e-05       0.0690865         1.82335
       19.6655       0.0615087             5.3      0.00575028     6.30935e-06       0.0964325     1.20339e-07      5.9993e-09     2.71794e-06       0.0855532         1.81112
       19.7428        0.633248             5.3      0.00473979     0.000206767        0.104123    -0.000310172      4.2267e-05     4.96468e-05         1.80537         1.64687
        19.891         1.72949             5.3      0.00497321     0.000276426        0.116523     -0.00115128     0.000155776      5.0006e-05         1.46012         1.33194
       20.0392         2.82573             5.3      0.00370819     0.000226474       0.0893702      -0.0126381      0.00171105     0.000661384         1.11488           1.017


ZONE
T           = "AeroCase:'AC_1'; Alt:8000; M:0.44; Re:9.1389e+06; AoS:0; AoA:3.46919 Wing:'vtp'"
I           = 6
DATAPACKING = POINT
ZONETYPE    = ORDERED
AUXDATA CS  = ""
       17.3978    -1.11596e-17         1.52915     2.80601e-16     9.44709e-09    -2.18433e-16               0               0               0        0.204057         3.50029
       17.4589    -4.55679e-17         1.61902     4.22755e-16     2.23325e-08    -3.29176e-16               0               0               0        0.420683         3.46389
       17.5389    -9.06252e-17         1.73671     5.27597e-16     3.26201e-08    -4.10775e-16               0               0               0        0.389193         3.41622
       18.0452    -3.75855e-16         2.48171     8.75592e-16      8.5934e-08    -6.81749e-16               0               0               0         4.28573         3.11444
       18.9804    -9.02696e-16         3.85779     3.28191e-14     3.61981e-07    -2.55532e-14               0               0               0         3.51869         2.55704
       19.9156    -1.42954e-15         5.23387    -1.95779e-13     8.53147e-07     1.52435e-13               0               0               0         2.75165         1.99963
