TITLE     = "AircraftModel"
VARIABLES = "X",
            "Y",
            "Z",
            "CD",
            "CS",
            "CL",
            "CMD",
            "CMS",
            "CML",
            "RefArea",
            "RefLength"


ZONE
T           = "AeroCase:'AC_1'; Alt:8000; M:0.44; Re:9.1389e+06; AoS:0; AoA:0.424588 Wing:'wing'"
I           = 66
DATAPACKING = POINT
ZONETYPE    = ORDERED
AUXDATA CS  = ""
       11.6675        -17.7132         2.00031       -0.111644      -0.0596112         2.91976         4.71816        0.223708        0.094723       0.0310505       0.0541336
       11.5261        -17.1396         2.00049     -0.00819544       -0.034571         2.63661        0.364214       -0.516418       0.0158518       0.0816859        0.142414
       11.3848         -16.566         2.00068      0.00862359      -0.0207331           2.118       0.0743916       -0.436995       0.0199979        0.132332        0.230708
       11.2434        -15.9924         2.00087      0.00771671      -0.0143743         1.74324       0.0261152       -0.359855        0.014414        0.182977        0.319003
       11.1021        -15.4189         2.00105      0.00585301      -0.0108749         1.48551       0.0125159        -0.30559       0.0104949        0.233618        0.407298
       10.9607        -14.8453         2.00123      0.00455184     -0.00869085         1.30167      0.00720831       -0.267061      0.00800097        0.284267        0.495593
       10.8194        -14.2717         2.00142      0.00372995     -0.00721028         1.16495      0.00466052       -0.238656       0.0063544        0.334907        0.583888
        10.678        -13.6981          2.0016      0.00321907     -0.00614442         1.05957      0.00325413       -0.216966      0.00521324        0.385558        0.672183
       10.5367        -13.1245         2.00179      0.00290419     -0.00534448        0.975926      0.00239723       -0.199909      0.00438857        0.436203        0.760478
       10.3953        -12.5509         2.00197      0.00271395     -0.00472005        0.907888      0.00183628       -0.186169      0.00377164         0.48684        0.848774
        10.254        -11.9773         2.00216      0.00260586     -0.00421836        0.851408      0.00144879        -0.17487      0.00329605        0.537493        0.937069
       10.1126        -11.4038         2.00234      0.00255389     -0.00380842        0.803711      0.00116948       -0.165417      0.00291995        0.588139         1.02536
       9.97126        -10.8302         2.00253      0.00254034     -0.00346318        0.762832     0.000961293       -0.157397      0.00261695        0.638773         1.11366
        9.8299        -10.2566         2.00271      0.00255437     -0.00317069        0.727345     0.000801925       -0.150511      0.00236755        0.689427         1.20195
       9.68855          -9.683          2.0029      0.00258868     -0.00291621         0.69619     0.000677073       -0.144536       0.0021599        0.740069         1.29025
       9.54719        -9.10941         2.00308      0.00263852     -0.00269304        0.668565     0.000577451       -0.139305      0.00198388        0.790716         1.37854
       9.40584        -8.53583         2.00327      0.00270073     -0.00249633         0.64385     0.000496667       -0.134692      0.00183283        0.841359         1.46684
       9.26449        -7.96224         2.00345      0.00277372     -0.00231718        0.621562      0.00043027       -0.130596      0.00170261        0.892004         1.55513
       9.12313        -7.38865         2.00364      0.00285745     -0.00215555        0.601318     0.000375156       -0.126943      0.00158829        0.942649         1.64343
       8.98178        -6.81507         2.00382      0.00295288     -0.00200642        0.582816     0.000329102       -0.123683      0.00148682        0.993295         1.73173
       8.84042        -6.24148         2.00401      0.00306398     -0.00186488        0.565818     0.000290648       -0.120785      0.00139626         1.04394         1.82002
       8.69907        -5.66789         2.00419      0.00319936     -0.00172896        0.550154     0.000259135       -0.118252      0.00131363         1.09458         1.90832
       8.55772        -5.09431         2.00438      0.00338098     -0.00159108         0.53574     0.000235645       -0.116144      0.00123562         1.14523         1.99661
       8.41636        -4.52072         2.00456      0.00360124     -0.00144882        0.522583     0.000218349       -0.114645        0.001166         1.19587         2.08491
       8.27501        -3.94714         2.00475       0.0074457    -0.000571795        0.512087     0.000286312       -0.113624     0.000828078         1.24652          2.1732
       8.20433        -3.41383         2.00353      0.00936929      0.00513156        0.517271     0.000358137        -0.11328       0.0023842         1.09327         2.21732
       8.20432        -2.92079         2.00093      0.00637516      0.00524275          0.5375     0.000394239       -0.113504       0.0020422         1.09325         2.21727
       8.20432        -2.42776         1.99832      0.00773059      0.00534784         0.55768     0.000388601       -0.113477      0.00207234         1.09325         2.21728
       8.20433        -1.93473         1.99571       0.0092201      0.00545411        0.576965     0.000377839        -0.11371      0.00209405         1.09328         2.21734
       8.20435        -1.44169         1.99311       0.0109153      0.00555408        0.594659     0.000351302       -0.114046      0.00211673         1.09333         2.21744
       8.20437       -0.948661          1.9905       0.0128209      0.00564063        0.609887     0.000307047       -0.114392      0.00213559         1.09341          2.2176
        8.2044       -0.455628         1.98789       0.0149586      0.00570749        0.621406     0.000233223       -0.114736      0.00215206         1.09351          2.2178
       8.20443       -0.104556         1.98603       0.0165806      0.00576058         0.62791     0.000130443       -0.115652       0.0022061        0.463828         2.21797
       8.20443        0.104556         1.98603       0.0165806     -0.00576058         0.62791    -0.000130443       -0.115652      -0.0022061        0.463828         2.21797
        8.2044        0.455628         1.98789       0.0149586     -0.00570749        0.621406    -0.000233223       -0.114736     -0.00215206         1.09351          2.2178
       8.20437        0.948661          1.9905       0.0128209     -0.00564063        0.609886    -0.000307047       -0.114392     -0.00213559         1.09341          2.2176
       8.20435         1.44169         1.99311       0.0109153     -0.00555408        0.594659    -0.000351302       -0.114046     -0.00211673         1.09333         2.21744
       8.20433         1.93473         1.99571       0.0092201     -0.00545411        0.576965    -0.000377839        -0.11371     -0.00209405         1.09328         2.21734
       8.20432         2.42776         1.99832      0.00773059     -0.00534784         0.55768    -0.000388601       -0.113477     -0.00207234         1.09325         2.21728
       8.20432         2.92079         2.00093      0.00637516     -0.00524275          0.5375    -0.000394239       -0.113504      -0.0020422         1.09325         2.21727
       8.20433         3.41383         2.00353      0.00936929     -0.00513156        0.517271    -0.000358137        -0.11328      -0.0023842         1.09327         2.21732
       8.27501         3.94714         2.00475      0.00744571     0.000571792        0.512087    -0.000286312       -0.113624    -0.000828079         1.24652          2.1732
       8.41636         4.52072         2.00456      0.00360124      0.00144882        0.522583    -0.000218349       -0.114645       -0.001166         1.19587         2.08491
       8.55772         5.09431         2.00438      0.00338097      0.00159108         0.53574    -0.000235645       -0.116144     -0.00123562         1.14523         1.99661
       8.69907         5.66789         2.00419      0.00319936      0.00172896        0.550154    -0.000259135       -0.118252     -0.00131363         1.09458         1.90832
       8.84042         6.24148         2.00401      0.00306398      0.00186488        0.565818    -0.000290648       -0.120785     -0.00139626         1.04394         1.82002
       8.98178         6.81507         2.00382      0.00295289      0.00200642        0.582816    -0.000329102       -0.123683     -0.00148682        0.993295         1.73173
       9.12313         7.38865         2.00364      0.00285745      0.00215555        0.601318    -0.000375156       -0.126943     -0.00158829        0.942649         1.64343
       9.26449         7.96224         2.00345      0.00277372      0.00231718        0.621562     -0.00043027       -0.130596     -0.00170261        0.892004         1.55513
       9.40584         8.53583         2.00327      0.00270073      0.00249633         0.64385    -0.000496667       -0.134692     -0.00183283        0.841359         1.46684
       9.54719         9.10941         2.00308      0.00263853      0.00269304        0.668565    -0.000577451       -0.139305     -0.00198388        0.790716         1.37854
       9.68855           9.683          2.0029      0.00258868      0.00291621         0.69619    -0.000677073       -0.144536      -0.0021599        0.740069         1.29025
        9.8299         10.2566         2.00271      0.00255437      0.00317069        0.727345    -0.000801925       -0.150511     -0.00236755        0.689427         1.20195
       9.97126         10.8302         2.00253      0.00254034      0.00346318        0.762832    -0.000961293       -0.157397     -0.00261695        0.638773         1.11366
       10.1126         11.4038         2.00234      0.00255389      0.00380842        0.803711     -0.00116948       -0.165417     -0.00291995        0.588139         1.02536
        10.254         11.9773         2.00216      0.00260586      0.00421836        0.851408     -0.00144879        -0.17487     -0.00329605        0.537493        0.937069
       10.3953         12.5509         2.00197      0.00271395      0.00472005        0.907888     -0.00183628       -0.186169     -0.00377164         0.48684        0.848774
       10.5367         13.1245         2.00179      0.00290419      0.00534448        0.975926     -0.00239723       -0.199909     -0.00438857        0.436203        0.760478
        10.678         13.6981          2.0016      0.00321907      0.00614442         1.05957     -0.00325413       -0.216966     -0.00521324        0.385558        0.672183
       10.8194         14.2717         2.00142      0.00372995      0.00721028         1.16495     -0.00466052       -0.238656      -0.0063544        0.334907        0.583888
       10.9607         14.8453         2.00123      0.00455184      0.00869085         1.30167     -0.00720831       -0.267061     -0.00800097        0.284267        0.495593
       11.1021         15.4189         2.00105      0.00585301       0.0108749         1.48551      -0.0125159        -0.30559      -0.0104949        0.233618        0.407298
       11.2434         15.9924         2.00087      0.00771671       0.0143743         1.74324      -0.0261152       -0.359855       -0.014414        0.182977        0.319003
       11.3848          16.566         2.00068      0.00862359       0.0207331           2.118      -0.0743916       -0.436995      -0.0199979        0.132332        0.230708
       11.5261         17.1396         2.00049     -0.00819545        0.034571         2.63661       -0.364214       -0.516418      -0.0158518       0.0816859        0.142414
       11.6675         17.7132         2.00031       -0.111644       0.0596112         2.91976        -4.71816        0.223708       -0.094723       0.0310505       0.0541336


ZONE
T           = "AeroCase:'AC_1'; Alt:8000; M:0.44; Re:9.1389e+06; AoS:0; AoA:0.424588 Wing:'htp'"
I           = 11
DATAPACKING = POINT
ZONETYPE    = ORDERED
AUXDATA CS  = ""
       20.0393        -2.82609             5.3    -0.000696034    -5.15654e-05      -0.0408041     -0.00602961    -0.000815301     8.29064e-05         1.11402          1.0169
       19.8912        -1.73058             5.3     -0.00106924    -8.24333e-05      -0.0594703     -0.00105936    -0.000143252     2.46123e-05         1.45881         1.33162
       19.7431       -0.635068             5.3     -0.00100134    -7.53275e-05      -0.0575607    -0.000310296    -4.19493e-05    -3.38357e-06         1.80359         1.64635
       19.6687      -0.0852651             5.3    -0.000678669    -3.54554e-05      -0.0543648    -5.62865e-10    -7.55233e-11    -1.15748e-10      0.00738448          1.8043
       19.6654      -0.0604636             5.3    -0.000511883    -1.37108e-05      -0.0541664    -5.31821e-08     -6.3458e-09    -8.39554e-07       0.0824383         1.81142
       19.6597      -0.0188542             5.3      0.00190593     0.000307189      -0.0538422    -1.17558e-07    -1.14487e-09    -1.47212e-05       0.0687568         1.82338
       19.6598       0.0189449             5.3      0.00189194    -0.000305061      -0.0538425      1.1884e-07    -1.31627e-09      1.4722e-05       0.0690865         1.82335
       19.6655       0.0615087             5.3    -0.000518618     1.46125e-05      -0.0541737     6.00565e-08    -7.24851e-09     8.73188e-07       0.0855532         1.81112
       19.7428        0.633248             5.3     -0.00100055      7.5234e-05      -0.0575496     0.000309643    -4.18614e-05     3.53406e-06         1.80537         1.64687
        19.891         1.72949             5.3     -0.00106929     8.24326e-05      -0.0594722      0.00105952    -0.000143267    -2.46144e-05         1.46012         1.33194
       20.0392         2.82573             5.3    -0.000696204     5.15803e-05      -0.0408123      0.00603418    -0.000815928    -8.29833e-05         1.11488           1.017


ZONE
T           = "AeroCase:'AC_1'; Alt:8000; M:0.44; Re:9.1389e+06; AoS:0; AoA:0.424588 Wing:'vtp'"
I           = 6
DATAPACKING = POINT
ZONETYPE    = ORDERED
AUXDATA CS  = ""
       17.3978    -1.11596e-17         1.52915     2.84526e-15    -2.97385e-08    -1.92961e-15               0               0               0        0.204057         3.50029
       17.4589    -4.55679e-17         1.61902     4.37484e-15    -7.06348e-08    -2.96772e-15               0               0               0        0.420683         3.46389
       17.5389    -9.06252e-17         1.73671     5.62176e-15    -1.03823e-07    -3.81323e-15               0               0               0        0.389193         3.41622
       18.0452    -3.75855e-16         2.48171     1.36954e-14    -2.95378e-07    -9.29004e-15               0               0               0         4.28573         3.11444
       18.9804    -9.02696e-16         3.85779      4.4183e-13    -1.29701e-06    -2.99705e-13     8.68063e-08               0    -5.99384e-08         3.51869         2.55704
       19.9156    -1.42954e-15         5.23387     -1.4064e-12    -2.83437e-06        9.54e-13     -1.7912e-07               0     1.23679e-07         2.75165         1.99963
