TITLE     = "AircraftModel"
VARIABLES = "X",
            "Y",
            "Z",
            "CD",
            "CS",
            "CL",
            "CMD",
            "CMS",
            "CML",
            "RefArea",
            "RefLength"


ZONE
T           = "AeroCase:'AC_1'; Alt:8000; M:0.44; Re:9.1389e+06; AoS:0; AoA:2.20727 Wing:'wing'"
I           = 64
DATAPACKING = POINT
ZONETYPE    = ORDERED
AUXDATA CS  = ""
       8.44914        -12.3929          2.0012       0.0380149     -0.00421233        0.640635       0.0655085       -0.149676     -0.00986905        0.211208        0.520012
       8.43775        -11.9867         2.00137       0.0328911     -0.00574507        0.955513      0.00883474       -0.191764     0.000126205        0.243273        0.598958
       8.42637        -11.5806         2.00154       0.0208282      -0.0055939         0.97446      0.00582773       -0.179927    -0.000841399        0.275344        0.677904
       8.41498        -11.1744          2.0017       0.0158793     -0.00540098        0.965465       0.0037001       -0.171204    -0.000741621        0.307402         0.75685
       8.40359        -10.7682         2.00188       0.0129201     -0.00514413        0.944821      0.00266929        -0.16319    -0.000687157        0.339475        0.835796
       8.39221         -10.362         2.00204       0.0111313     -0.00488914        0.921319      0.00204285        -0.15627    -0.000632606        0.371532        0.914742
       8.38082        -9.95589         2.00221       0.0100119      -0.0046475        0.897809      0.00162586       -0.150289      -0.0005851        0.403602        0.993687
       8.36943        -9.54972         2.00238      0.00930347     -0.00442763        0.875337      0.00132849       -0.145096    -0.000544562        0.435665         1.07263
       8.35805        -9.14356         2.00255      0.00886081     -0.00422829        0.854217      0.00110597       -0.140553    -0.000509818         0.46773         1.15158
       8.34666        -8.73739         2.00272      0.00859878     -0.00404724        0.834463     0.000933118        -0.13655    -0.000481504        0.499795         1.23053
       8.33527        -8.33123         2.00289      0.00846588     -0.00388305        0.815959       0.0007947       -0.132995    -0.000457113         0.53186         1.30947
       8.32389        -7.92507         2.00306      0.00843127     -0.00373105        0.798527     0.000680683       -0.129816    -0.000436888        0.563925         1.38842
        8.3125         -7.5189         2.00323      0.00847824     -0.00359082        0.781953     0.000584028       -0.126958    -0.000419687         0.59599         1.46736
       8.30111        -7.11274          2.0034      0.00860282     -0.00345753        0.765983      0.00049922        -0.12438    -0.000405962        0.628055         1.54631
       8.28973        -6.70657         2.00357      0.00881764     -0.00333041        0.750299     0.000421307       -0.122069    -0.000395516         0.66012         1.62525
       8.27834        -6.30041         2.00374      0.00915936     -0.00320471        0.734451        0.000344       -0.120068    -0.000388295        0.692185          1.7042
       8.26696        -5.89425         2.00391      0.00983206     -0.00307343        0.717733     0.000260944       -0.118543    -0.000401345        0.724252         1.78315
       8.25557        -5.48808         2.00408       0.0122051     -0.00289631        0.699512     0.000250972       -0.118771    -0.000485317        0.756315         1.86209
       8.24418        -5.08192         2.00425       0.0164558     -0.00257686        0.684634     0.000171546       -0.123628    -0.000538337         0.78838         1.94104
        8.2328        -4.67575         2.00441       0.0194049     -0.00234404        0.669186     0.000231336       -0.126203    -0.000532996        0.820445         2.01998
       8.22141        -4.26959         2.00458       0.0186972     -0.00234787        0.666668     0.000541192        -0.12484    -0.000426479         0.85251         2.09893
       8.21002        -3.86342         2.00475       0.0152309     -0.00260969        0.684298     0.000611238        -0.12132    -0.000159531        0.884575         2.17788
       8.20433        -3.46861         2.00382      0.00975854      0.00619196        0.715344     0.000780119       -0.113962      0.00207962        0.850323         2.21732
       8.20432        -3.08514          2.0018      0.00203415       0.0064716         0.77685     0.000930117       -0.111884       0.0023958        0.850307         2.21728
       8.20432        -2.70167         1.99977     0.000220296      0.00674416        0.826346     0.000608951       -0.112437      0.00239951        0.850305         2.21727
       8.20432         -2.3182         1.99774      0.00349909      0.00687013        0.843902     0.000108811       -0.114064      0.00235906         0.85031         2.21729
       8.20433        -1.93473         1.99571      0.00958901        0.006816        0.831615    -0.000202912       -0.114529      0.00232145        0.850328         2.21733
       8.20434        -1.55126         1.99369        0.015146      0.00669305        0.811813     9.37725e-05       -0.113729       0.0024369        0.850358         2.21741
       8.20436        -1.16779         1.99166       0.0168387      0.00671975        0.814875     0.000212145       -0.114219       0.0023689          0.8504         2.21752
       8.20438       -0.784317         1.98963       0.0191442      0.00675879        0.820981     0.000228717       -0.114536      0.00238645        0.850452         2.21766
       8.20441       -0.400846          1.9876       0.0214072      0.00679345        0.826746     0.000222431       -0.114803      0.00239549        0.850516         2.21782
       8.20443       -0.104556         1.98603       0.0232273      0.00684172         0.83198     0.000230393        -0.11581      0.00243849        0.463828         2.21797
       8.20443        0.104556         1.98603       0.0232273     -0.00684172         0.83198    -0.000230393        -0.11581     -0.00243849        0.463828         2.21797
       8.20441        0.400846          1.9876       0.0214072     -0.00679345        0.826746    -0.000222431       -0.114803     -0.00239549        0.850516         2.21782
       8.20438        0.784317         1.98963       0.0191442     -0.00675879        0.820981    -0.000228717       -0.114536     -0.00238645        0.850452         2.21766
       8.20436         1.16779         1.99166       0.0168387     -0.00671975        0.814875    -0.000212145       -0.114219      -0.0023689          0.8504         2.21752
       8.20434         1.55126         1.99369        0.015146     -0.00669305        0.811813    -9.37725e-05       -0.113729      -0.0024369        0.850358         2.21741
       8.20433         1.93473         1.99571      0.00958901       -0.006816        0.831615     0.000202912       -0.114529     -0.00232145        0.850328         2.21733
       8.20432          2.3182         1.99774      0.00349909     -0.00687013        0.843902    -0.000108811       -0.114064     -0.00235906         0.85031         2.21729
       8.20432         2.70167         1.99977     0.000220296     -0.00674416        0.826346    -0.000608951       -0.112437     -0.00239951        0.850305         2.21727
       8.20432         3.08514          2.0018      0.00203415      -0.0064716         0.77685    -0.000930117       -0.111884      -0.0023958        0.850307         2.21728
       8.20433         3.46861         2.00382      0.00975854     -0.00619196        0.715344    -0.000780119       -0.113962     -0.00207962        0.850323         2.21732
       8.21002         3.86342         2.00475       0.0152309      0.00260969        0.684298    -0.000611238        -0.12132     0.000159531        0.884575         2.17788
       8.22141         4.26959         2.00458       0.0186972      0.00234787        0.666668    -0.000541192        -0.12484     0.000426479         0.85251         2.09893
        8.2328         4.67575         2.00441       0.0194049      0.00234404        0.669186    -0.000231336       -0.126203     0.000532996        0.820445         2.01998
       8.24418         5.08192         2.00425       0.0164558      0.00257686        0.684634    -0.000171546       -0.123628     0.000538337         0.78838         1.94104
       8.25557         5.48808         2.00408       0.0122051      0.00289631        0.699512    -0.000250972       -0.118771     0.000485317        0.756315         1.86209
       8.26696         5.89425         2.00391      0.00983206      0.00307343        0.717733    -0.000260944       -0.118543     0.000401345        0.724252         1.78315
       8.27834         6.30041         2.00374      0.00915936      0.00320471        0.734451       -0.000344       -0.120068     0.000388295        0.692185          1.7042
       8.28973         6.70657         2.00357      0.00881764      0.00333041        0.750299    -0.000421307       -0.122069     0.000395516         0.66012         1.62525
       8.30111         7.11274          2.0034      0.00860282      0.00345753        0.765983     -0.00049922        -0.12438     0.000405962        0.628055         1.54631
        8.3125          7.5189         2.00323      0.00847824      0.00359082        0.781953    -0.000584028       -0.126958     0.000419687         0.59599         1.46736
       8.32389         7.92507         2.00306      0.00843127      0.00373105        0.798527    -0.000680683       -0.129816     0.000436888        0.563925         1.38842
       8.33527         8.33123         2.00289      0.00846588      0.00388305        0.815959      -0.0007947       -0.132995     0.000457113         0.53186         1.30947
       8.34666         8.73739         2.00272      0.00859878      0.00404724        0.834463    -0.000933118        -0.13655     0.000481504        0.499795         1.23053
       8.35805         9.14356         2.00255      0.00886081      0.00422829        0.854217     -0.00110597       -0.140553     0.000509818         0.46773         1.15158
       8.36943         9.54972         2.00238      0.00930347      0.00442763        0.875337     -0.00132849       -0.145096     0.000544562        0.435665         1.07263
       8.38082         9.95589         2.00221       0.0100119       0.0046475        0.897809     -0.00162586       -0.150289       0.0005851        0.403602        0.993687
       8.39221          10.362         2.00204       0.0111313      0.00488914        0.921319     -0.00204285        -0.15627     0.000632606        0.371532        0.914742
       8.40359         10.7682         2.00188       0.0129201      0.00514413        0.944821     -0.00266929        -0.16319     0.000687157        0.339475        0.835796
       8.41498         11.1744          2.0017       0.0158793      0.00540098        0.965465      -0.0037001       -0.171204     0.000741621        0.307402         0.75685
       8.42637         11.5806         2.00154       0.0208282       0.0055939         0.97446     -0.00582773       -0.179927     0.000841399        0.275344        0.677904
       8.43775         11.9867         2.00137       0.0328911      0.00574507        0.955513     -0.00883474       -0.191764    -0.000126205        0.243273        0.598958
       8.44914         12.3929          2.0012       0.0380149      0.00421233        0.640635      -0.0655085       -0.149676      0.00986905        0.211208        0.520012


ZONE
T           = "AeroCase:'AC_1'; Alt:8000; M:0.44; Re:9.1389e+06; AoS:0; AoA:2.20727 Wing:'htp'"
I           = 11
DATAPACKING = POINT
ZONETYPE    = ORDERED
AUXDATA CS  = ""
       20.0393        -2.82609             5.3     0.000924597    -2.09378e-05       0.0280471      0.00378949      0.00051273    -0.000143476         1.11402          1.0169
       19.8912        -1.73058             5.3      0.00111436    -1.84406e-05       0.0324988     3.74352e-05     5.07276e-06    -2.88808e-06         1.45881         1.33162
       19.7431       -0.635068             5.3     0.000947828    -1.07445e-05       0.0266933      1.4923e-05     2.03305e-06    -3.23829e-06         1.80359         1.64635
       19.6687      -0.0852651             5.3     0.000926929    -1.83437e-06       0.0244413    -2.40894e-12     2.55089e-12    -5.55346e-10      0.00738448          1.8043
       19.6654      -0.0604636             5.3     0.000955736     2.55602e-06       0.0243444    -5.07326e-09     1.83234e-10    -1.66831e-07       0.0824383         1.81142
       19.6597      -0.0188542             5.3      0.00142892     6.75355e-05       0.0241664    -1.13476e-07    -1.10859e-10    -2.92283e-06       0.0687568         1.82338
       19.6598       0.0189449             5.3      0.00142614    -6.70965e-05       0.0241669     1.13506e-07    -1.14223e-10     2.92295e-06       0.0690865         1.82335
       19.6655       0.0615087             5.3     0.000954435    -2.36117e-06       0.0243485      5.2363e-09     2.00024e-10     1.74247e-07       0.0855532         1.81112
       19.7428        0.633248             5.3     0.000947678     1.07237e-05       0.0266854    -1.48726e-05     2.02637e-06     3.25936e-06         1.80537         1.64687
        19.891         1.72949             5.3      0.00111423     1.84309e-05       0.0324936    -3.72067e-05     5.04156e-06     2.88154e-06         1.46012         1.33194
       20.0392         2.82573             5.3     0.000924694      2.0938e-05       0.0280496     -0.00379178     0.000513045     0.000143563         1.11488           1.017


ZONE
T           = "AeroCase:'AC_1'; Alt:8000; M:0.44; Re:9.1389e+06; AoS:0; AoA:2.20727 Wing:'vtp'"
I           = 6
DATAPACKING = POINT
ZONETYPE    = ORDERED
AUXDATA CS  = ""
       17.3978    -1.11596e-17         1.52915     2.25059e-18    -8.22527e-10    -1.66198e-18               0               0               0        0.204057         3.50029
       17.4589    -4.55679e-17         1.61902     3.81898e-18    -1.99756e-09    -2.82091e-18               0               0               0        0.420683         3.46389
       17.5389    -9.06252e-17         1.73671     5.55078e-18    -3.02016e-09    -4.09975e-18               0               0               0        0.389193         3.41622
       18.0452    -3.75855e-16         2.48171     3.89226e-17      -1.145e-08    -2.87492e-17               0               0               0         4.28573         3.11444
       18.9804    -9.02696e-16         3.85779     6.51748e-16    -5.00929e-08    -4.81392e-16               0               0               0         3.51869         2.55704
       19.9156    -1.42954e-15         5.23387     1.23459e-15    -8.79523e-08    -9.11888e-16               0               0               0         2.75165         1.99963
