TITLE     = "AircraftModel"
VARIABLES = "X",
            "Y",
            "Z",
            "CD",
            "CS",
            "CL",
            "CMD",
            "CMS",
            "CML",
            "RefArea",
            "RefLength"


ZONE
T           = "AeroCase:'AC_1'; Alt:8000; M:0.44; Re:9.1389e+06; AoS:0; AoA:0.276984 Wing:'wing'"
I           = 66
DATAPACKING = POINT
ZONETYPE    = ORDERED
AUXDATA CS  = ""
       10.6035        -17.7132         2.00006      -0.0813005      -0.0485833         3.06271         4.95945       -0.118289       0.0287451       0.0310574       0.0541456
       10.5056        -17.1396         2.00025       0.0151837      -0.0313345         2.76943        0.380007       -0.566714      0.00395565       0.0816998        0.142438
       10.4077         -16.566         2.00045       0.0217289      -0.0192413         2.20986       0.0737002        -0.46188        0.013107        0.132346        0.230732
       10.3098        -15.9924         2.00064       0.0153128       -0.013157         1.80334       0.0248013       -0.375757       0.0094135         0.18299        0.319026
       10.2118        -15.4189         2.00084       0.0107179     -0.00974466         1.52506       0.0115987        -0.31686      0.00668371        0.233631         0.40732
       10.1139        -14.8453         2.00103      0.00794588     -0.00762864         1.32775      0.00660037       -0.275566      0.00498487         0.28428        0.495614
        10.016        -14.2717         2.00123      0.00625633      -0.0062145         1.18186      0.00424496       -0.245369       0.0038881        0.334918        0.583909
       9.91805        -13.6981         2.00142      0.00518865     -0.00521594         1.06998      0.00295758       -0.222452      0.00314131        0.385569        0.672203
       9.82012        -13.1245         2.00162      0.00449046     -0.00447547        0.981549      0.00217708       -0.204516      0.00261054        0.436213        0.760497
       9.72219        -12.5509         2.00181      0.00402515     -0.00390735        0.909875      0.00166693       -0.190114       0.0022176        0.486849        0.848791
       9.62427        -11.9773         2.00201       0.0037118      -0.0034593        0.850553      0.00131407       -0.178306      0.00191718        0.537503        0.937085
       9.52634        -11.4038          2.0022      0.00350249     -0.00309438        0.800566      0.00105873       -0.168449      0.00168245        0.588147         1.02538
       9.42841        -10.8302          2.0024      0.00336708      -0.0027936        0.757779       0.0008671       -0.160103      0.00149351        0.638781         1.11367
       9.33049        -10.2566         2.00259       0.0032871     -0.00253898        0.720636      0.00071866       -0.152947      0.00133891        0.689434         1.20197
       9.23256          -9.683         2.00279      0.00325234      -0.0023188        0.687966     0.000600091        -0.14674      0.00121063        0.740076         1.29026
       9.13463        -9.10941         2.00298      0.00325679     -0.00212514        0.658856     0.000502351       -0.141305      0.00110187        0.790721         1.37855
       9.03671        -8.53583         2.00318      0.00329966     -0.00195159         0.63256     0.000418607       -0.136504        0.001008        0.841364         1.46685
       8.93878        -7.96224         2.00337       0.0033858     -0.00179008        0.608424     0.000342993       -0.132232     0.000926221        0.892009         1.55514
       8.84085        -7.38865         2.00357      0.00352987     -0.00163499        0.585799     0.000269245       -0.128414     0.000852563        0.942653         1.64344
       8.74293        -6.81507         2.00376      0.00376302     -0.00147685        0.563912     0.000187338       -0.125018     0.000784302        0.993299         1.73173
         8.645        -6.24148         2.00396      0.00424268     -0.00128564        0.541664     8.64851e-05       -0.122116     0.000706523         1.04394         1.82003
       8.54707        -5.66789         2.00415      0.00452391     -0.00108503        0.514882    -0.000240121       -0.120537     0.000731504         1.09459         1.90832
       8.44915        -5.09431         2.00435       0.0081457    -0.000377867        0.488627    -8.53629e-05       -0.124741     0.000375237         1.14523         1.99661
       8.35122        -4.52072         2.00454      0.00965067    -4.93407e-05        0.469117     0.000300734        -0.12606     0.000456679         1.19587         2.08491
       8.25329        -3.94714         2.00474      0.00683428    -0.000521782        0.479965      0.00100178       -0.119132     0.000669433         1.24652          2.1732
       8.20433        -3.41383         2.00353      0.00272052      0.00519073        0.527293      0.00135268       -0.113591      0.00234337         1.09327         2.21732
       8.20432        -2.92079         2.00093     -0.00250746      0.00557402        0.602613      0.00122917       -0.112899      0.00220338         1.09325         2.21727
       8.20432        -2.42776         1.99832     -0.00179882      0.00582489        0.643476     0.000283542       -0.114605       0.0021247         1.09325         2.21728
       8.20433        -1.93473         1.99571      0.00419542      0.00580459         0.63685    -0.000379688       -0.115329      0.00201791         1.09328         2.21734
       8.20435        -1.44169         1.99311      0.00880367        0.005713        0.622003     4.87591e-05       -0.114735      0.00222981         1.09333         2.21744
       8.20437       -0.948661          1.9905       0.0105682      0.00575333        0.627464     0.000197226       -0.115335      0.00215513         1.09341          2.2176
        8.2044       -0.455628         1.98789       0.0129681      0.00579958        0.635046      0.00018408       -0.115691      0.00217612         1.09351          2.2178
       8.20443       -0.104556         1.98603       0.0146437      0.00584709        0.640486     0.000125042       -0.116608      0.00223023        0.463828         2.21797
       8.20443        0.104556         1.98603       0.0146437     -0.00584709        0.640486    -0.000125042       -0.116608     -0.00223023        0.463828         2.21797
        8.2044        0.455628         1.98789       0.0129681     -0.00579958        0.635046     -0.00018408       -0.115691     -0.00217612         1.09351          2.2178
       8.20437        0.948661          1.9905       0.0105682     -0.00575333        0.627464    -0.000197226       -0.115335     -0.00215513         1.09341          2.2176
       8.20435         1.44169         1.99311      0.00880367       -0.005713        0.622003    -4.87591e-05       -0.114735     -0.00222981         1.09333         2.21744
       8.20433         1.93473         1.99571      0.00419542     -0.00580459         0.63685     0.000379688       -0.115329     -0.00201791         1.09328         2.21734
       8.20432         2.42776         1.99832     -0.00179882     -0.00582489        0.643476    -0.000283542       -0.114605      -0.0021247         1.09325         2.21728
       8.20432         2.92079         2.00093     -0.00250746     -0.00557402        0.602613     -0.00122917       -0.112899     -0.00220338         1.09325         2.21727
       8.20433         3.41383         2.00353      0.00272052     -0.00519073        0.527293     -0.00135268       -0.113591     -0.00234337         1.09327         2.21732
       8.25329         3.94714         2.00474       0.0068343      0.00052178        0.479965     -0.00100178       -0.119132    -0.000669434         1.24652          2.1732
       8.35122         4.52072         2.00454      0.00965068     4.93397e-05        0.469117    -0.000300734        -0.12606    -0.000456679         1.19587         2.08491
       8.44915         5.09431         2.00435       0.0081457     0.000377867        0.488627     8.53629e-05       -0.124741    -0.000375237         1.14523         1.99661
       8.54707         5.66789         2.00415      0.00452392      0.00108503        0.514882     0.000240121       -0.120537    -0.000731504         1.09459         1.90832
         8.645         6.24148         2.00396      0.00424268      0.00128564        0.541664    -8.64851e-05       -0.122116    -0.000706523         1.04394         1.82003
       8.74293         6.81507         2.00376      0.00376303      0.00147685        0.563912    -0.000187338       -0.125018    -0.000784302        0.993299         1.73173
       8.84085         7.38865         2.00357      0.00352987      0.00163499        0.585799    -0.000269245       -0.128414    -0.000852563        0.942653         1.64344
       8.93878         7.96224         2.00337       0.0033858      0.00179008        0.608424    -0.000342993       -0.132232     -0.00092622        0.892009         1.55514
       9.03671         8.53583         2.00318      0.00329966      0.00195159         0.63256    -0.000418607       -0.136504       -0.001008        0.841364         1.46685
       9.13463         9.10941         2.00298      0.00325679      0.00212514        0.658856    -0.000502351       -0.141305     -0.00110188        0.790721         1.37855
       9.23256           9.683         2.00279      0.00325234       0.0023188        0.687966    -0.000600091        -0.14674     -0.00121063        0.740076         1.29026
       9.33049         10.2566         2.00259       0.0032871      0.00253898        0.720636     -0.00071866       -0.152947     -0.00133891        0.689434         1.20197
       9.42841         10.8302          2.0024      0.00336708       0.0027936        0.757779      -0.0008671       -0.160103     -0.00149351        0.638781         1.11367
       9.52634         11.4038          2.0022      0.00350249      0.00309438        0.800566     -0.00105873       -0.168449     -0.00168245        0.588147         1.02538
       9.62427         11.9773         2.00201      0.00371181       0.0034593        0.850553     -0.00131407       -0.178306     -0.00191718        0.537503        0.937085
       9.72219         12.5509         2.00181      0.00402515      0.00390735        0.909875     -0.00166693       -0.190114      -0.0022176        0.486849        0.848791
       9.82012         13.1245         2.00162      0.00449046      0.00447547        0.981549     -0.00217708       -0.204516     -0.00261054        0.436213        0.760497
       9.91805         13.6981         2.00142      0.00518865      0.00521594         1.06998     -0.00295758       -0.222452     -0.00314131        0.385569        0.672203
        10.016         14.2717         2.00123      0.00625633       0.0062145         1.18186     -0.00424496       -0.245369      -0.0038881        0.334918        0.583909
       10.1139         14.8453         2.00103      0.00794588      0.00762864         1.32775     -0.00660037       -0.275566     -0.00498487         0.28428        0.495614
       10.2118         15.4189         2.00084       0.0107179      0.00974466         1.52506      -0.0115987        -0.31686     -0.00668371        0.233631         0.40732
       10.3098         15.9924         2.00064       0.0153128        0.013157         1.80334      -0.0248013       -0.375757      -0.0094135         0.18299        0.319026
       10.4077          16.566         2.00045       0.0217289       0.0192413         2.20986      -0.0737002        -0.46188       -0.013107        0.132346        0.230732
       10.5056         17.1396         2.00025       0.0151837       0.0313345         2.76943       -0.380007       -0.566714     -0.00395565       0.0816998        0.142438
       10.6035         17.7132         2.00006      -0.0813005       0.0485833         3.06271        -4.95945       -0.118289      -0.0287451       0.0310574       0.0541456


ZONE
T           = "AeroCase:'AC_1'; Alt:8000; M:0.44; Re:9.1389e+06; AoS:0; AoA:0.276984 Wing:'htp'"
I           = 11
DATAPACKING = POINT
ZONETYPE    = ORDERED
AUXDATA CS  = ""
       20.0393        -2.82609             5.3    -0.000933421    -8.93979e-05      -0.0541812     -0.00801638     -0.00108392     0.000104839         1.11402          1.0169
       19.8912        -1.73058             5.3     -0.00145652    -0.000143113      -0.0790146     -0.00138709    -0.000187563     3.41367e-05         1.45881         1.33162
       19.7431       -0.635068             5.3     -0.00133066    -0.000128252      -0.0760026    -0.000388026    -5.24568e-05    -9.14974e-06         1.80359         1.64635
       19.6687      -0.0852651             5.3    -0.000789361    -5.83636e-05       -0.071645    -6.73204e-10    -9.00559e-11    -6.33279e-10      0.00738448          1.8043
       19.6654      -0.0604636             5.3    -0.000503192    -2.06165e-05      -0.0713816    -6.33254e-08    -7.61102e-09    -1.44857e-06       0.0824383         1.81142
       19.6597      -0.0188542             5.3      0.00366556      0.00053668      -0.0709496    -1.34746e-07    -1.61746e-09    -2.53989e-05       0.0687568         1.82338
       19.6598       0.0189449             5.3      0.00364141    -0.000532978      -0.0709502     1.35939e-07    -1.77643e-09     2.54002e-05       0.0690865         1.82335
       19.6655       0.0615087             5.3    -0.000514838     2.21891e-05      -0.0713917     7.09435e-08    -8.61126e-09     1.50684e-06       0.0855532         1.81112
       19.7428        0.633248             5.3     -0.00132937      0.00012809       -0.075988     0.000387194    -5.23448e-05     9.40088e-06         1.80537         1.64687
        19.891         1.72949             5.3     -0.00145658     0.000143111      -0.0790172      0.00138727    -0.000187576    -3.41353e-05         1.46012         1.33194
       20.0392         2.82573             5.3    -0.000933673     8.94251e-05      -0.0541925      0.00802248     -0.00108476    -0.000104944         1.11488           1.017


ZONE
T           = "AeroCase:'AC_1'; Alt:8000; M:0.44; Re:9.1389e+06; AoS:0; AoA:0.276984 Wing:'vtp'"
I           = 6
DATAPACKING = POINT
ZONETYPE    = ORDERED
AUXDATA CS  = ""
       17.3978    -1.11596e-17         1.52915     2.30642e-15    -2.68567e-08      -1.566e-15               0               0               0        0.204057         3.50029
       17.4589    -4.55679e-17         1.61902     3.54223e-15    -6.37499e-08    -2.40572e-15               0               0               0        0.420683         3.46389
       17.5389    -9.06252e-17         1.73671     4.54347e-15    -9.36233e-08    -3.08544e-15               0               0               0        0.389193         3.41622
       18.0452    -3.75855e-16         2.48171     1.08384e-14     -2.6542e-07    -7.36067e-15               0               0               0         4.28573         3.11444
       18.9804    -9.02696e-16         3.85779     3.45228e-13    -1.16216e-06    -2.34451e-13     7.79403e-08               0    -5.35206e-08         3.51869         2.55704
       19.9156    -1.42954e-15         5.23387    -1.17927e-12    -2.52899e-06     8.00864e-13     -1.6029e-07               0     1.10069e-07         2.75165         1.99963
