TITLE     = "AircraftModel"
VARIABLES = "X",
            "Y",
            "Z"


ZONE
T           = "wing_segment_from_wing_section_1_element_1_to_wing_section_2_element_1_symm; Col:1; Row:1; CS:0; Side:Lower"
I           = 28
J           = 26
DATAPACKING = BLOCK
ZONETYPE    = ORDERED
VARLOCATION = (NODAL, NODAL, NODAL)
AUXDATA CS  = ""
# X
         10.65           10.65         10.6499         10.6499         10.6499         10.6498         10.6498         10.6499         10.6499         10.6499  
         10.65           10.65         10.6501         10.6502         10.6503         10.6504         10.6505         10.6506         10.6508         10.6509  
       10.6511         10.6512         10.6514         10.6515         10.6517         10.6519         10.6521         10.6523           10.53           10.53  
       10.5301         10.5303         10.5306         10.5309         10.5314          10.532         10.5327         10.5334         10.5343         10.5352  
       10.5363         10.5374         10.5386         10.5399         10.5413         10.5428         10.5444          10.546         10.5477         10.5495  
       10.5514         10.5533         10.5553         10.5574         10.5596         10.5618           10.41         10.4101         10.4103         10.4107  
       10.4113          10.412          10.413         10.4141         10.4154         10.4169         10.4186         10.4204         10.4224         10.4246  
       10.4269         10.4294         10.4321         10.4349         10.4379         10.4411         10.4444         10.4478         10.4514         10.4551  
        10.459          10.463         10.4671         10.4714           10.29         10.2901         10.2905         10.2911          10.292         10.2931  
       10.2945         10.2962         10.2982         10.3004         10.3029         10.3056         10.3086         10.3118         10.3153          10.319  
       10.3229         10.3271         10.3315         10.3362          10.341         10.3461         10.3514         10.3569         10.3626         10.3685  
       10.3746         10.3809           10.17         10.1701         10.1706         10.1715         10.1727         10.1742         10.1761         10.1784  
       10.1809         10.1839         10.1872         10.1908         10.1947          10.199         10.2036         10.2085         10.2137         10.2193  
       10.2251         10.2313         10.2377         10.2444         10.2514         10.2587         10.2662          10.274         10.2821         10.2904  
         10.05         10.0502         10.0508         10.0519         10.0534         10.0553         10.0577         10.0605         10.0637         10.0674  
       10.0714         10.0759         10.0809         10.0862         10.0919          10.098         10.1045         10.1114         10.1187         10.1263  
       10.1344         10.1427         10.1514         10.1605         10.1699         10.1796         10.1896         10.1999            9.93         9.93024  
         9.931         9.93228         9.93408          9.9364         9.93924          9.9426         9.94647         9.95085         9.95574         9.96112  
         9.967         9.97337         9.98022         9.98754         9.99533         10.0036         10.0123         10.0214          10.031          10.041  
       10.0514         10.0623         10.0735         10.0851         10.0971         10.1094            9.81         9.81029         9.81118         9.81268  
       9.81478         9.81749         9.82081         9.82472         9.82924         9.83434         9.84003          9.8463         9.85315         9.86056  
       9.86853         9.87706         9.88613         9.89574         9.90587         9.91652         9.92767         9.93932         9.95145         9.96406  
       9.97712         9.99063         10.0046          10.019            9.69         9.69033         9.69136         9.69308         9.69549         9.69859  
       9.70237         9.70685           9.712         9.71783         9.72432         9.73148          9.7393         9.74776         9.75685         9.76658  
       9.77693         9.78789         9.79946         9.81161         9.82433         9.83762         9.85146         9.86584         9.88075         9.89617  
       9.91208         9.92847            9.57         9.57038         9.57154         9.57348         9.57619         9.57968         9.58394         9.58897  
       9.59477         9.60132         9.60862         9.61666         9.62544         9.63495         9.64517         9.65611         9.66774         9.68005  
       9.69304         9.70669         9.72099         9.73592         9.75148         9.76763         9.78438          9.8017         9.81957         9.83799  
          9.45         9.45043         9.45172         9.45388         9.45689         9.46077         9.46551          9.4711         9.47753          9.4848  
       9.49291         9.50184         9.51159         9.52214         9.53349         9.54563         9.55854         9.57221         9.58663         9.60178  
       9.61765         9.63423         9.65149         9.66942         9.68801         9.70723         9.72707         9.74751            9.33         9.33047  
        9.3319         9.33427          9.3376         9.34187         9.34708         9.35322         9.36029         9.36829          9.3772         9.38702  
       9.39774         9.40934         9.42181         9.43515         9.44934         9.46437         9.48021         9.49687         9.51431         9.53253  
        9.5515         9.57121         9.59164         9.61276         9.63457         9.65703            9.21         9.21052         9.21208         9.21467  
        9.2183         9.22296         9.22864         9.23534         9.24306         9.25178          9.2615          9.2722         9.28388         9.29653  
       9.31013         9.32468         9.34014         9.35652          9.3738         9.39196         9.41097         9.43083         9.45151           9.473  
       9.49527         9.51829         9.54206         9.56654            9.09         9.09057         9.09226         9.09507         9.09901         9.10405  
       9.11021         9.11747         9.12582         9.13527         9.14579         9.15738         9.17003         9.18372         9.19845          9.2142  
       9.23095         9.24868         9.26739         9.28704         9.30763         9.32913         9.35152         9.37479         9.39889         9.42383  
       9.44956         9.47606            8.97         8.97061         8.97244         8.97547         8.97971         8.98515         8.99178         8.99959  
       9.00859         9.01875         9.03008         9.04256         9.05618         9.07092         9.08677         9.10372         9.12175         9.14084  
       9.16097         9.18213         9.20429         9.22743         9.25154         9.27657         9.30252         9.32936         9.35705         9.38558  
          8.85         8.85066         8.85262         8.85587         8.86042         8.86624         8.87334         8.88172         8.89135         8.90224  
       8.91437         8.92774         8.94232         8.95811         8.97509         8.99324         9.01255           9.033         9.05456         9.07722  
       9.10095         9.12574         9.15155         9.17836         9.20615         9.23489         9.26455          9.2951            8.73         8.73071  
        8.7328         8.73627         8.74112         8.74733         8.75491         8.76384         8.77412         8.78573         8.79867         8.81292  
       8.82847         8.84531         8.86341         8.88277         8.90336         8.92516         8.94815          8.9723         8.99761         9.02404  
       9.05156         9.08015         9.10978         9.14042         9.17205         9.20462            8.61         8.61075         8.61298         8.61667  
       8.62182         8.62843         8.63648         8.64596         8.65688         8.66922         8.68296          8.6981         8.71462          8.7325  
       8.75173         8.77229         8.79416         8.81731         8.84173         8.86739         8.89427         8.92234         8.95157         8.98194  
       9.01341         9.04596         9.07954         9.11414            8.49          8.4908         8.49316         8.49707         8.50253         8.50952  
       8.51804         8.52809         8.53964          8.5527         8.56725         8.58328         8.60076         8.61969         8.64005         8.66181  
       8.68496         8.70947         8.73532         8.76248         8.79093         8.82064         8.85158         8.88373         8.91704         8.95149  
       8.98704         9.02366            8.37         8.37085         8.37334         8.37747         8.38323         8.39062         8.39961         8.41021  
       8.42241         8.43619         8.45155         8.46846         8.48691         8.50689         8.52837         8.55134         8.57576         8.60163  
        8.6289         8.65757         8.68759         8.71894          8.7516         8.78552         8.82067         8.85702         8.89454         8.93318  
          8.25         8.25089         8.25352         8.25787         8.26394         8.27171         8.28118         8.29233         8.30517         8.31968  
       8.33584         8.35364         8.37306         8.39408         8.41669         8.44086         8.46657         8.49379         8.52249         8.55265  
       8.58425         8.61725         8.65161          8.6873          8.7243         8.76255         8.80203          8.8427            8.13         8.13094  
        8.1337         8.13827         8.14464          8.1528         8.16275         8.17446         8.18794         8.20317         8.22013         8.23882  
        8.2592         8.28127         8.30501         8.33038         8.35737         8.38594         8.41608         8.44774         8.48091         8.51555  
       8.55162         8.58909         8.62793         8.66808         8.70953         8.75221            8.01         8.01099         8.01388         8.01867  
       8.02535          8.0339         8.04431         8.05658          8.0707         8.08665         8.10442           8.124         8.14535         8.16847  
       8.19333          8.2199         8.24817          8.2781         8.30966         8.34283         8.37757         8.41385         8.45163         8.49088  
       8.53156         8.57362         8.61702         8.66173            7.89         7.89103         7.89406         7.89907         7.90605         7.91499  
       7.92588         7.93871         7.95346         7.97014         7.98872         8.00918          8.0315         8.05566         8.08165         8.10943  
       8.13897         8.17026         8.20325         8.23792         8.27423         8.31215         8.35164         8.39267         8.43518         8.47915  
       8.52452         8.57125            7.77         7.77108         7.77424         7.77947         7.78675         7.79608         7.80745         7.82083  
       7.83623         7.85363         7.87301         7.89436         7.91764         7.94285         7.96997         7.99895         8.02978         8.06242  
       8.09684           8.133         8.17089         8.21045         8.25166         8.29446         8.33881         8.38468         8.43202         8.48077  
          7.65         7.65113         7.65442         7.65987         7.66746         7.67718         7.68901         7.70295         7.71899         7.73711  
        7.7573         7.77953         7.80379         7.83005         7.85829         7.88847         7.92058         7.95457         7.99042         8.02809  
       8.06755         8.10876         8.15167         8.19625         8.24244         8.29021         8.33951         8.39029  
# Y
           -18             -18             -18             -18             -18             -18             -18             -18             -18             -18  
           -18             -18             -18             -18             -18             -18             -18             -18             -18             -18  
           -18             -18             -18             -18             -18             -18             -18             -18        -17.4264        -17.4264  
      -17.4264        -17.4264        -17.4264        -17.4264        -17.4264        -17.4264        -17.4264        -17.4264        -17.4264        -17.4264  
      -17.4264        -17.4264        -17.4264        -17.4264        -17.4264        -17.4264        -17.4264        -17.4264        -17.4264        -17.4264  
      -17.4264        -17.4264        -17.4264        -17.4264        -17.4264        -17.4264        -16.8528        -16.8528        -16.8528        -16.8528  
      -16.8528        -16.8528        -16.8528        -16.8528        -16.8528        -16.8528        -16.8528        -16.8528        -16.8528        -16.8528  
      -16.8528        -16.8528        -16.8528        -16.8528        -16.8528        -16.8528        -16.8528        -16.8528        -16.8528        -16.8528  
      -16.8528        -16.8528        -16.8528        -16.8528        -16.2792        -16.2792        -16.2792        -16.2792        -16.2792        -16.2792  
      -16.2792        -16.2792        -16.2792        -16.2792        -16.2792        -16.2792        -16.2792        -16.2792        -16.2792        -16.2792  
      -16.2792        -16.2792        -16.2792        -16.2792        -16.2792        -16.2792        -16.2792        -16.2792        -16.2792        -16.2792  
      -16.2792        -16.2792        -15.7057        -15.7057        -15.7057        -15.7057        -15.7057        -15.7057        -15.7057        -15.7057  
      -15.7057        -15.7057        -15.7057        -15.7057        -15.7057        -15.7057        -15.7057        -15.7057        -15.7057        -15.7057  
      -15.7057        -15.7057        -15.7057        -15.7057        -15.7057        -15.7057        -15.7057        -15.7057        -15.7057        -15.7057  
      -15.1321        -15.1321        -15.1321        -15.1321        -15.1321        -15.1321        -15.1321        -15.1321        -15.1321        -15.1321  
      -15.1321        -15.1321        -15.1321        -15.1321        -15.1321        -15.1321        -15.1321        -15.1321        -15.1321        -15.1321  
      -15.1321        -15.1321        -15.1321        -15.1321        -15.1321        -15.1321        -15.1321        -15.1321        -14.5585        -14.5585  
      -14.5585        -14.5585        -14.5585        -14.5585        -14.5585        -14.5585        -14.5585        -14.5585        -14.5585        -14.5585  
      -14.5585        -14.5585        -14.5585        -14.5585        -14.5585        -14.5585        -14.5585        -14.5585        -14.5585        -14.5585  
      -14.5585        -14.5585        -14.5585        -14.5585        -14.5585        -14.5585        -13.9849        -13.9849        -13.9849        -13.9849  
      -13.9849        -13.9849        -13.9849        -13.9849        -13.9849        -13.9849        -13.9849        -13.9849        -13.9849        -13.9849  
      -13.9849        -13.9849        -13.9849        -13.9849        -13.9849        -13.9849        -13.9849        -13.9849        -13.9849        -13.9849  
      -13.9849        -13.9849        -13.9849        -13.9849        -13.4113        -13.4113        -13.4113        -13.4113        -13.4113        -13.4113  
      -13.4113        -13.4113        -13.4113        -13.4113        -13.4113        -13.4113        -13.4113        -13.4113        -13.4113        -13.4113  
      -13.4113        -13.4113        -13.4113        -13.4113        -13.4113        -13.4113        -13.4113        -13.4113        -13.4113        -13.4113  
      -13.4113        -13.4113        -12.8377        -12.8377        -12.8377        -12.8377        -12.8377        -12.8377        -12.8377        -12.8377  
      -12.8377        -12.8377        -12.8377        -12.8377        -12.8377        -12.8377        -12.8377        -12.8377        -12.8377        -12.8377  
      -12.8377        -12.8377        -12.8377        -12.8377        -12.8377        -12.8377        -12.8377        -12.8377        -12.8377        -12.8377  
      -12.2641        -12.2641        -12.2641        -12.2641        -12.2641        -12.2641        -12.2641        -12.2641        -12.2641        -12.2641  
      -12.2641        -12.2641        -12.2641        -12.2641        -12.2641        -12.2641        -12.2641        -12.2641        -12.2641        -12.2641  
      -12.2641        -12.2641        -12.2641        -12.2641        -12.2641        -12.2641        -12.2641        -12.2641        -11.6906        -11.6906  
      -11.6906        -11.6906        -11.6906        -11.6906        -11.6906        -11.6906        -11.6906        -11.6906        -11.6906        -11.6906  
      -11.6906        -11.6906        -11.6906        -11.6906        -11.6906        -11.6906        -11.6906        -11.6906        -11.6906        -11.6906  
      -11.6906        -11.6906        -11.6906        -11.6906        -11.6906        -11.6906         -11.117         -11.117         -11.117         -11.117  
       -11.117         -11.117         -11.117         -11.117         -11.117         -11.117         -11.117         -11.117         -11.117         -11.117  
       -11.117         -11.117         -11.117         -11.117         -11.117         -11.117         -11.117         -11.117         -11.117         -11.117  
       -11.117         -11.117         -11.117         -11.117        -10.5434        -10.5434        -10.5434        -10.5434        -10.5434        -10.5434  
      -10.5434        -10.5434        -10.5434        -10.5434        -10.5434        -10.5434        -10.5434        -10.5434        -10.5434        -10.5434  
      -10.5434        -10.5434        -10.5434        -10.5434        -10.5434        -10.5434        -10.5434        -10.5434        -10.5434        -10.5434  
      -10.5434        -10.5434        -9.96979        -9.96979        -9.96979        -9.96979        -9.96979        -9.96979        -9.96979        -9.96979  
      -9.96979        -9.96979        -9.96979        -9.96979        -9.96979        -9.96979        -9.96979        -9.96979        -9.96979        -9.96979  
      -9.96979        -9.96979        -9.96979        -9.96979        -9.96979        -9.96979        -9.96979        -9.96979        -9.96979        -9.96979  
      -9.39621        -9.39621        -9.39621        -9.39621        -9.39621        -9.39621        -9.39621        -9.39621        -9.39621        -9.39621  
      -9.39621        -9.39621        -9.39621        -9.39621        -9.39621        -9.39621        -9.39621        -9.39621        -9.39621        -9.39621  
      -9.39621        -9.39621        -9.39621        -9.39621        -9.39621        -9.39621        -9.39621        -9.39621        -8.82262        -8.82262  
      -8.82262        -8.82262        -8.82262        -8.82262        -8.82262        -8.82262        -8.82262        -8.82262        -8.82262        -8.82262  
      -8.82262        -8.82262        -8.82262        -8.82262        -8.82262        -8.82262        -8.82262        -8.82262        -8.82262        -8.82262  
      -8.82262        -8.82262        -8.82262        -8.82262        -8.82262        -8.82262        -8.24903        -8.24903        -8.24903        -8.24903  
      -8.24903        -8.24903        -8.24903        -8.24903        -8.24903        -8.24903        -8.24903        -8.24903        -8.24903        -8.24903  
      -8.24903        -8.24903        -8.24903        -8.24903        -8.24903        -8.24903        -8.24903        -8.24903        -8.24903        -8.24903  
      -8.24903        -8.24903        -8.24903        -8.24903        -7.67545        -7.67545        -7.67545        -7.67545        -7.67545        -7.67545  
      -7.67545        -7.67545        -7.67545        -7.67545        -7.67545        -7.67545        -7.67545        -7.67545        -7.67545        -7.67545  
      -7.67545        -7.67545        -7.67545        -7.67545        -7.67545        -7.67545        -7.67545        -7.67545        -7.67545        -7.67545  
      -7.67545        -7.67545        -7.10186        -7.10186        -7.10186        -7.10186        -7.10186        -7.10186        -7.10186        -7.10186  
      -7.10186        -7.10186        -7.10186        -7.10186        -7.10186        -7.10186        -7.10186        -7.10186        -7.10186        -7.10186  
      -7.10186        -7.10186        -7.10186        -7.10186        -7.10186        -7.10186        -7.10186        -7.10186        -7.10186        -7.10186  
      -6.52827        -6.52827        -6.52827        -6.52827        -6.52827        -6.52827        -6.52827        -6.52827        -6.52827        -6.52827  
      -6.52827        -6.52827        -6.52827        -6.52827        -6.52827        -6.52827        -6.52827        -6.52827        -6.52827        -6.52827  
      -6.52827        -6.52827        -6.52827        -6.52827        -6.52827        -6.52827        -6.52827        -6.52827        -5.95469        -5.95469  
      -5.95469        -5.95469        -5.95469        -5.95469        -5.95469        -5.95469        -5.95469        -5.95469        -5.95469        -5.95469  
      -5.95469        -5.95469        -5.95469        -5.95469        -5.95469        -5.95469        -5.95469        -5.95469        -5.95469        -5.95469  
      -5.95469        -5.95469        -5.95469        -5.95469        -5.95469        -5.95469         -5.3811         -5.3811         -5.3811         -5.3811  
       -5.3811         -5.3811         -5.3811         -5.3811         -5.3811         -5.3811         -5.3811         -5.3811         -5.3811         -5.3811  
       -5.3811         -5.3811         -5.3811         -5.3811         -5.3811         -5.3811         -5.3811         -5.3811         -5.3811         -5.3811  
       -5.3811         -5.3811         -5.3811         -5.3811        -4.80752        -4.80752        -4.80752        -4.80752        -4.80752        -4.80752  
      -4.80752        -4.80752        -4.80752        -4.80752        -4.80752        -4.80752        -4.80752        -4.80752        -4.80752        -4.80752  
      -4.80752        -4.80752        -4.80752        -4.80752        -4.80752        -4.80752        -4.80752        -4.80752        -4.80752        -4.80752  
      -4.80752        -4.80752        -4.23393        -4.23393        -4.23393        -4.23393        -4.23393        -4.23393        -4.23393        -4.23393  
      -4.23393        -4.23393        -4.23393        -4.23393        -4.23393        -4.23393        -4.23393        -4.23393        -4.23393        -4.23393  
      -4.23393        -4.23393        -4.23393        -4.23393        -4.23393        -4.23393        -4.23393        -4.23393        -4.23393        -4.23393  
      -3.66034        -3.66034        -3.66034        -3.66034        -3.66034        -3.66034        -3.66034        -3.66034        -3.66034        -3.66034  
      -3.66034        -3.66034        -3.66034        -3.66034        -3.66034        -3.66034        -3.66034        -3.66034        -3.66034        -3.66034  
      -3.66034        -3.66034        -3.66034        -3.66034        -3.66034        -3.66034        -3.66034        -3.66034  
# Z
             2         1.99734         1.99358         1.98975         1.98595          1.9823         1.97911         1.97645         1.97383         1.97137  
       1.96892         1.96674         1.96476         1.96262         1.96036         1.95834         1.95629         1.95423         1.95243         1.95071  
       1.94868         1.94666         1.94472         1.94283         1.94108         1.93953         1.93805         1.93694               2         1.99722  
       1.99328         1.98926         1.98529         1.98147         1.97813         1.97535         1.97261         1.97005         1.96748         1.96521  
       1.96314         1.96091         1.95855         1.95645         1.95431         1.95216         1.95029         1.94851         1.94639         1.94429  
       1.94228         1.94031         1.93849         1.93689         1.93535         1.93421               2         1.99709         1.99298         1.98878  
       1.98463         1.98064         1.97715         1.97425          1.9714         1.96872         1.96604         1.96368         1.96152          1.9592  
       1.95674         1.95456         1.95233          1.9501         1.94816          1.9463          1.9441         1.94192         1.93983         1.93779  
       1.93591         1.93425         1.93265         1.93148               2         1.99697         1.99267          1.9883         1.98397         1.97981  
       1.97617         1.97315         1.97018         1.96739         1.96461         1.96215          1.9599         1.95749         1.95493         1.95266  
       1.95035         1.94803         1.94602          1.9441         1.94182         1.93955         1.93739         1.93527         1.93332         1.93161  
       1.92996         1.92874               2         1.99684         1.99237         1.98781         1.98331         1.97898         1.97519         1.97205  
       1.96896         1.96606         1.96317         1.96061         1.95829         1.95578         1.95312         1.95077         1.94837         1.94597  
       1.94388         1.94189         1.93953         1.93718         1.93494         1.93275         1.93074         1.92896         1.92726         1.92601  
             2         1.99671         1.99207         1.98733         1.98265         1.97815         1.97422         1.97095         1.96774         1.96474  
       1.96173         1.95908         1.95667         1.95407         1.95132         1.94888          1.9464          1.9439         1.94175         1.93969  
       1.93724         1.93481          1.9325         1.93023         1.92815         1.92632         1.92457         1.92328               2         1.99659  
       1.99176         1.98685         1.98199         1.97732         1.97324         1.96985         1.96653         1.96341          1.9603         1.95755  
       1.95505         1.95236         1.94951         1.94699         1.94442         1.94184         1.93961         1.93748         1.93495         1.93244  
       1.93005         1.92771         1.92556         1.92368         1.92187         1.92055               2         1.99646         1.99146         1.98637  
       1.98133         1.97649         1.97226         1.96876         1.96531         1.96208         1.95886         1.95602         1.95343         1.95065  
        1.9477         1.94509         1.94244         1.93977         1.93747         1.93528         1.93267         1.93007         1.92761         1.92519  
       1.92298         1.92104         1.91918         1.91782               2         1.99634         1.99116         1.98588         1.98067         1.97566  
       1.97128         1.96766         1.96409         1.96075         1.95742         1.95448         1.95181         1.94894         1.94589          1.9432  
       1.94046         1.93771         1.93534         1.93307         1.93038          1.9277         1.92516         1.92267         1.92039         1.91839  
       1.91648         1.91509               2         1.99621         1.99085          1.9854         1.98001         1.97483          1.9703         1.96656  
       1.96287         1.95942         1.95598         1.95295          1.9502         1.94723         1.94409         1.94131         1.93848         1.93565  
        1.9332         1.93087         1.92809         1.92533         1.92272         1.92015          1.9178         1.91575         1.91379         1.91236  
             2         1.99609         1.99055         1.98492         1.97935         1.97399         1.96933         1.96546         1.96166          1.9581  
       1.95455         1.95142         1.94858         1.94552         1.94228         1.93942          1.9365         1.93358         1.93106         1.92866  
        1.9258         1.92297         1.92027         1.91764         1.91522         1.91311         1.91109         1.90963               2         1.99596  
       1.99025         1.98443         1.97869         1.97316         1.96835         1.96436         1.96044         1.95677         1.95311         1.94989  
       1.94696         1.94381         1.94047         1.93752         1.93453         1.93152         1.92893         1.92646         1.92351          1.9206  
       1.91782         1.91512         1.91263         1.91047         1.90839          1.9069               2         1.99583         1.98994         1.98395  
       1.97802         1.97233         1.96737         1.96326         1.95922         1.95544         1.95167         1.94835         1.94534          1.9421  
       1.93866         1.93563         1.93255         1.92945         1.92679         1.92425         1.92123         1.91823         1.91538          1.9126  
       1.91005         1.90782          1.9057         1.90417               2         1.99571         1.98964         1.98347         1.97736          1.9715  
       1.96639         1.96216           1.958         1.95411         1.95023         1.94682         1.94372         1.94039         1.93686         1.93374  