TITLE     = "AircraftModel"
VARIABLES = "X",
            "Y",
            "Z"


ZONE
T           = "wing_segment_from_wing_section_1_element_1_to_wing_section_2_element_1_symm; Col:1; Row:1; CS:0; Side:Lower"
I           = 28
J           = 23
DATAPACKING = BLOCK
ZONETYPE    = ORDERED
VARLOCATION = (NODAL, NODAL, NODAL)
AUXDATA CS  = ""
# X
        8.3347         8.33496         8.33569         8.33689         8.33856         8.34068         8.34326          8.3463         8.34979         8.35373  
       8.35811         8.36294         8.36821         8.37391         8.38004         8.38659         8.39356         8.40094         8.40872         8.41689  
       8.42545         8.43439          8.4437         8.45337         8.46339         8.47376         8.48445         8.49546         8.30358         8.30387  
       8.30473         8.30612         8.30805         8.31052         8.31352         8.31705         8.32111          8.3257          8.3308         8.33642  
       8.34255         8.34919         8.35633         8.36395         8.37206         8.38065         8.38971         8.39922         8.40919         8.41959  
       8.43043         8.44169         8.45335         8.46541         8.47786         8.49068         8.27245         8.27279         8.27376         8.27534  
       8.27755         8.28036         8.28379         8.28781         8.29244         8.29767          8.3035         8.30991          8.3169         8.32447  
       8.33261         8.34131         8.35056         8.36036         8.37069         8.38155         8.39292         8.40479         8.41716            8.43  
       8.44331         8.45707         8.47127          8.4859         8.24133         8.24171         8.24279         8.24457         8.24704          8.2502  
       8.25405         8.25857         8.26377         8.26964         8.27619         8.28339         8.29124         8.29975         8.30889         8.31867  
       8.32907         8.34007         8.35168         8.36387         8.37665         8.38999         8.40388         8.41831         8.43326         8.44873  
       8.46468         8.48112         8.21021         8.21063         8.21183          8.2138         8.21654         8.22004         8.22431         8.22933  
        8.2351         8.24162         8.24888         8.25687         8.26559         8.27503         8.28518         8.29603         8.30757         8.31978  
       8.33267          8.3462         8.36038         8.37519         8.39061         8.40662         8.42322         8.44038          8.4581         8.47634  
       8.17909         8.17954         8.18086         8.18302         8.18603         8.18988         8.19457         8.20008         8.20642         8.21359  
       8.22157         8.23035         8.23993         8.25031         8.26146         8.27339         8.28607         8.29949         8.31365         8.32853  
       8.34411         8.36039         8.37733         8.39494         8.41318         8.43204         8.45151         8.47156         8.14796         8.14846  
       8.14989         8.15225         8.15553         8.15973         8.16483         8.17084         8.17775         8.18556         8.19426         8.20383  
       8.21428         8.22559         8.23775         8.25074         8.26457         8.27921         8.29464         8.31086         8.32784         8.34558  
       8.36406         8.38325         8.40313          8.4237         8.44492         8.46678         8.11684         8.11738         8.11893         8.12148  
       8.12502         8.12957         8.13509          8.1416         8.14908         8.15753         8.16695         8.17731         8.18862         8.20086  
       8.21403          8.2281         8.24307         8.25892         8.27563         8.29318         8.31158         8.33078         8.35078         8.37156  
       8.39309         8.41536         8.43833         8.46199         8.08572         8.08629         8.08796          8.0907         8.09452         8.09941  
       8.10535         8.11235         8.12041          8.1295         8.13964         8.15079         8.16297         8.17614         8.19031         8.20546  
       8.22157         8.23863         8.25661         8.27551         8.29531         8.31598         8.33751         8.35987         8.38305         8.40701  
       8.43174         8.45721          8.0546         8.05521         8.05699         8.05993         8.06402         8.06925         8.07562         8.08311  
       8.09173         8.10148         8.11233         8.12428         8.13731         8.15142          8.1666         8.18282         8.20007         8.21834  
        8.2376         8.25784         8.27904         8.30118         8.32423         8.34819         8.37301         8.39867         8.42516         8.45243  
       8.02347         8.02413         8.02602         8.02916         8.03351         8.03909         8.04588         8.05387         8.06306         8.07345  
       8.08502         8.09776         8.11165          8.1267         8.14288         8.16018         8.17857         8.19805         8.21858         8.24016  
       8.26277         8.28638         8.31096          8.3365         8.36296         8.39033         8.41857         8.44765         7.99235         7.99304  
       7.99506         7.99838         8.00301         8.00893         8.01614         8.02463         8.03439         8.04542         8.05771         8.07124  
         8.086         8.10198         8.11917         8.13753         8.15707         8.17776         8.19957         8.22249          8.2465         8.27158  
       8.29769         8.32481         8.35292         8.38198         8.41198         8.44287         7.96123         7.96196         7.96409         7.96761  
        7.9725         7.97877          7.9864         7.99538         8.00572         8.01739          8.0304         8.04472         8.06034         8.07726  
       8.09545         8.11489         8.13557         8.15747         8.18056         8.20482         8.23023         8.25677         8.28441         8.31312  
       8.34288         8.37364         8.40539         8.43809          7.9301         7.93088         7.93312         7.93683           7.942         7.94861  
       7.95666         7.96614         7.97705         7.98937         8.00309          8.0182         8.03469         8.05254         8.07173         8.09225  
       8.11407         8.13718         8.16154         8.18715         8.21397         8.24197         8.27114         8.30143         8.33283          8.3653  
        8.3988         8.43331         7.89898         7.89979         7.90216         7.90606         7.91149         7.91845         7.92692          7.9369  
       7.94837         7.96134         7.97578         7.99168         8.00903         8.02782         8.04802         8.06961         8.09257         8.11689  
       8.14253         8.16947          8.1977         8.22717         8.25786         8.28975         8.32279         8.35696         8.39222         8.42853  
       7.86786         7.86871         7.87119         7.87529         7.88099         7.88829         7.89718         7.90765          7.9197         7.93331  
       7.94847         7.96516         7.98338          8.0031          8.0243         8.04697         8.07107          8.0966         8.12352          8.1518  
       8.18143         8.21237         8.24459         8.27806         8.31275         8.34861         8.38563         8.42375         7.83674         7.83763  
       7.84022         7.84451         7.85048         7.85813         7.86745         7.87841         7.89103         7.90528         7.92116         7.93865  
       7.95772         7.97837         8.00058         8.02432         8.04957         8.07631          8.1045         8.13413         8.16516         8.19757  
       8.23131         8.26637          8.3027         8.34027         8.37904         8.41897         7.80561         7.80654         7.80926         7.81374  
       7.81998         7.82797         7.83771         7.84917         7.86236         7.87725         7.89385         7.91213         7.93207         7.95365  
       7.97687         8.00168         8.02808         8.05602         8.08549         8.11645         8.14889         8.18277         8.21804         8.25468  
       8.29266         8.33193         8.37245         8.41419         7.77449         7.77546         7.77829         7.78297         7.78948         7.79781  
       7.80797         7.81993         7.83368         7.84923         7.86654         7.88561         7.90641         7.92893         7.95315         7.97904  
       8.00658         8.03573         8.06648         8.09878         8.13262         8.16796         8.20477           8.243         8.28262         8.32358  
       8.36587         8.40941         7.74337         7.74438         7.74732         7.75219         7.75897         7.76766         7.77823         7.79068  
       7.80501          7.8212         7.83923         7.85909         7.88076         7.90421         7.92944          7.9564         7.98508         8.01544  
       8.04746         8.08111         8.11636         8.15316         8.19149         8.23131         8.27257         8.31524         8.35928         8.40463  
       7.71225         7.71329         7.71636         7.72142         7.72847          7.7375         7.74849         7.76144         7.77634         7.79317  
       7.81192         7.83257          7.8551         7.87949         7.90572         7.93376         7.96358         7.99515         8.02845         8.06344  
       8.10009         8.13836         8.17822         8.21962         8.26253          8.3069         8.35269         8.39985         7.68112         7.68221  
       7.68539         7.69064         7.69796         7.70734         7.71875          7.7322         7.74767         7.76514         7.78461         7.80605  
       7.82944         7.85477           7.882         7.91111         7.94208         7.97486         8.00944         8.04576         8.08382         8.12356  
       8.16494         8.20793         8.25249         8.29856          8.3461         8.39507            7.65         7.65113         7.65442         7.65987  
       7.66746         7.67718         7.68901         7.70295         7.71899         7.73711          7.7573         7.77953         7.80379         7.83005  
       7.85829         7.88847         7.92058         7.95457         7.99042         8.02809         8.06755         8.10876         8.15167         8.19625  
       8.24244         8.29021         8.33951         8.39029  
# Y
       -12.596         -12.596         -12.596         -12.596         -12.596         -12.596         -12.596         -12.596         -12.596         -12.596  
       -12.596         -12.596         -12.596         -12.596         -12.596         -12.596         -12.596         -12.596         -12.596         -12.596  
       -12.596         -12.596         -12.596         -12.596         -12.596         -12.596         -12.596         -12.596        -12.1898        -12.1898  
      -12.1898        -12.1898        -12.1898        -12.1898        -12.1898        -12.1898        -12.1898        -12.1898        -12.1898        -12.1898  
      -12.1898        -12.1898        -12.1898        -12.1898        -12.1898        -12.1898        -12.1898        -12.1898        -12.1898        -12.1898  
      -12.1898        -12.1898        -12.1898        -12.1898        -12.1898        -12.1898        -11.7836        -11.7836        -11.7836        -11.7836  
      -11.7836        -11.7836        -11.7836        -11.7836        -11.7836        -11.7836        -11.7836        -11.7836        -11.7836        -11.7836  
      -11.7836        -11.7836        -11.7836        -11.7836        -11.7836        -11.7836        -11.7836        -11.7836        -11.7836        -11.7836  
      -11.7836        -11.7836        -11.7836        -11.7836        -11.3775        -11.3775        -11.3775        -11.3775        -11.3775        -11.3775  
      -11.3775        -11.3775        -11.3775        -11.3775        -11.3775        -11.3775        -11.3775        -11.3775        -11.3775        -11.3775  
      -11.3775        -11.3775        -11.3775        -11.3775        -11.3775        -11.3775        -11.3775        -11.3775        -11.3775        -11.3775  
      -11.3775        -11.3775        -10.9713        -10.9713        -10.9713        -10.9713        -10.9713        -10.9713        -10.9713        -10.9713  
      -10.9713        -10.9713        -10.9713        -10.9713        -10.9713        -10.9713        -10.9713        -10.9713        -10.9713        -10.9713  
      -10.9713        -10.9713        -10.9713        -10.9713        -10.9713        -10.9713        -10.9713        -10.9713        -10.9713        -10.9713  
      -10.5651        -10.5651        -10.5651        -10.5651        -10.5651        -10.5651        -10.5651        -10.5651        -10.5651        -10.5651  
      -10.5651        -10.5651        -10.5651        -10.5651        -10.5651        -10.5651        -10.5651        -10.5651        -10.5651        -10.5651  
      -10.5651        -10.5651        -10.5651        -10.5651        -10.5651        -10.5651        -10.5651        -10.5651         -10.159         -10.159  
       -10.159         -10.159         -10.159         -10.159         -10.159         -10.159         -10.159         -10.159         -10.159         -10.159  
       -10.159         -10.159         -10.159         -10.159         -10.159         -10.159         -10.159         -10.159         -10.159         -10.159  
       -10.159         -10.159         -10.159         -10.159         -10.159         -10.159         -9.7528         -9.7528         -9.7528         -9.7528  
       -9.7528         -9.7528         -9.7528         -9.7528         -9.7528         -9.7528         -9.7528         -9.7528         -9.7528         -9.7528  
       -9.7528         -9.7528         -9.7528         -9.7528         -9.7528         -9.7528         -9.7528         -9.7528         -9.7528         -9.7528  
       -9.7528         -9.7528         -9.7528         -9.7528        -9.34664        -9.34664        -9.34664        -9.34664        -9.34664        -9.34664  
      -9.34664        -9.34664        -9.34664        -9.34664        -9.34664        -9.34664        -9.34664        -9.34664        -9.34664        -9.34664  
      -9.34664        -9.34664        -9.34664        -9.34664        -9.34664        -9.34664        -9.34664        -9.34664        -9.34664        -9.34664  
      -9.34664        -9.34664        -8.94048        -8.94048        -8.94048        -8.94048        -8.94048        -8.94048        -8.94048        -8.94048  
      -8.94048        -8.94048        -8.94048        -8.94048        -8.94048        -8.94048        -8.94048        -8.94048        -8.94048        -8.94048  
      -8.94048        -8.94048        -8.94048        -8.94048        -8.94048        -8.94048        -8.94048        -8.94048        -8.94048        -8.94048  
      -8.53431        -8.53431        -8.53431        -8.53431        -8.53431        -8.53431        -8.53431        -8.53431        -8.53431        -8.53431  
      -8.53431        -8.53431        -8.53431        -8.53431        -8.53431        -8.53431        -8.53431        -8.53431        -8.53431        -8.53431  
      -8.53431        -8.53431        -8.53431        -8.53431        -8.53431        -8.53431        -8.53431        -8.53431        -8.12815        -8.12815  
      -8.12815        -8.12815        -8.12815        -8.12815        -8.12815        -8.12815        -8.12815        -8.12815        -8.12815        -8.12815  
      -8.12815        -8.12815        -8.12815        -8.12815        -8.12815        -8.12815        -8.12815        -8.12815        -8.12815        -8.12815  
      -8.12815        -8.12815        -8.12815        -8.12815        -8.12815        -8.12815        -7.72198        -7.72198        -7.72198        -7.72198  
      -7.72198        -7.72198        -7.72198        -7.72198        -7.72198        -7.72198        -7.72198        -7.72198        -7.72198        -7.72198  
      -7.72198        -7.72198        -7.72198        -7.72198        -7.72198        -7.72198        -7.72198        -7.72198        -7.72198        -7.72198  
      -7.72198        -7.72198        -7.72198        -7.72198        -7.31582        -7.31582        -7.31582        -7.31582        -7.31582        -7.31582  
      -7.31582        -7.31582        -7.31582        -7.31582        -7.31582        -7.31582        -7.31582        -7.31582        -7.31582        -7.31582  
      -7.31582        -7.31582        -7.31582        -7.31582        -7.31582        -7.31582        -7.31582        -7.31582        -7.31582        -7.31582  
      -7.31582        -7.31582        -6.90966        -6.90966        -6.90966        -6.90966        -6.90966        -6.90966        -6.90966        -6.90966  
      -6.90966        -6.90966        -6.90966        -6.90966        -6.90966        -6.90966        -6.90966        -6.90966        -6.90966        -6.90966  
      -6.90966        -6.90966        -6.90966        -6.90966        -6.90966        -6.90966        -6.90966        -6.90966        -6.90966        -6.90966  
      -6.50349        -6.50349        -6.50349        -6.50349        -6.50349        -6.50349        -6.50349        -6.50349        -6.50349        -6.50349  
      -6.50349        -6.50349        -6.50349        -6.50349        -6.50349        -6.50349        -6.50349        -6.50349        -6.50349        -6.50349  
      -6.50349        -6.50349        -6.50349        -6.50349        -6.50349        -6.50349        -6.50349        -6.50349        -6.09733        -6.09733  
      -6.09733        -6.09733        -6.09733        -6.09733        -6.09733        -6.09733        -6.09733        -6.09733        -6.09733        -6.09733  
      -6.09733        -6.09733        -6.09733        -6.09733        -6.09733        -6.09733        -6.09733        -6.09733        -6.09733        -6.09733  
      -6.09733        -6.09733        -6.09733        -6.09733        -6.09733        -6.09733        -5.69116        -5.69116        -5.69116        -5.69116  
      -5.69116        -5.69116        -5.69116        -5.69116        -5.69116        -5.69116        -5.69116        -5.69116        -5.69116        -5.69116  
      -5.69116        -5.69116        -5.69116        -5.69116        -5.69116        -5.69116        -5.69116        -5.69116        -5.69116        -5.69116  
      -5.69116        -5.69116        -5.69116        -5.69116          -5.285          -5.285          -5.285          -5.285          -5.285          -5.285  
        -5.285          -5.285          -5.285          -5.285          -5.285          -5.285          -5.285          -5.285          -5.285          -5.285  
        -5.285          -5.285          -5.285          -5.285          -5.285          -5.285          -5.285          -5.285          -5.285          -5.285  
        -5.285          -5.285        -4.87884        -4.87884        -4.87884        -4.87884        -4.87884        -4.87884        -4.87884        -4.87884  
      -4.87884        -4.87884        -4.87884        -4.87884        -4.87884        -4.87884        -4.87884        -4.87884        -4.87884        -4.87884  
      -4.87884        -4.87884        -4.87884        -4.87884        -4.87884        -4.87884        -4.87884        -4.87884        -4.87884        -4.87884  
      -4.47267        -4.47267        -4.47267        -4.47267        -4.47267        -4.47267        -4.47267        -4.47267        -4.47267        -4.47267  
      -4.47267        -4.47267        -4.47267        -4.47267        -4.47267        -4.47267        -4.47267        -4.47267        -4.47267        -4.47267  
      -4.47267        -4.47267        -4.47267        -4.47267        -4.47267        -4.47267        -4.47267        -4.47267        -4.06651        -4.06651  
      -4.06651        -4.06651        -4.06651        -4.06651        -4.06651        -4.06651        -4.06651        -4.06651        -4.06651        -4.06651  
      -4.06651        -4.06651        -4.06651        -4.06651        -4.06651        -4.06651        -4.06651        -4.06651        -4.06651        -4.06651  
      -4.06651        -4.06651        -4.06651        -4.06651        -4.06651        -4.06651        -3.66034        -3.66034        -3.66034        -3.66034  
      -3.66034        -3.66034        -3.66034        -3.66034        -3.66034        -3.66034        -3.66034        -3.66034        -3.66034        -3.66034  
      -3.66034        -3.66034        -3.66034        -3.66034        -3.66034        -3.66034        -3.66034        -3.66034        -3.66034        -3.66034  
      -3.66034        -3.66034        -3.66034        -3.66034  
# Z
             2         1.99735         1.99359         1.98977         1.98599         1.98235         1.97918         1.97656         1.97397         1.97155  
       1.96914         1.96701         1.96507         1.96299         1.96078         1.95883         1.95685         1.95485         1.95313         1.95149  
       1.94954          1.9476         1.94576         1.94396          1.9423         1.94086         1.93947         1.93847               2          1.9972  
       1.99325         1.98922         1.98523         1.98141         1.97807          1.9753         1.97258         1.97003         1.96749         1.96525  
       1.96322         1.96103         1.95871         1.95666         1.95457         1.95248         1.95067         1.94895          1.9469         1.94487  
       1.94293         1.94104         1.93931          1.9378         1.93634          1.9353               2         1.99706          1.9929         1.98867  
       1.98448         1.98046         1.97695         1.97405         1.97119         1.96852         1.96585          1.9635         1.96137         1.95907  
       1.95664         1.95449          1.9523          1.9501         1.94821         1.94641         1.94426         1.94213         1.94011         1.93813  
       1.93632         1.93473         1.93322         1.93212               2         1.99692         1.99256         1.98812         1.98373         1.97952  
       1.97584         1.97279          1.9698           1.967         1.96421         1.96175         1.95951         1.95711         1.95456         1.95231  
       1.95003         1.94773         1.94575         1.94387         1.94162          1.9394         1.93728         1.93522         1.93332         1.93167  
       1.93009         1.92895               2         1.99677         1.99221         1.98757         1.98298         1.97857         1.97472         1.97154  
       1.96841         1.96548         1.96256         1.95999         1.95766         1.95515         1.95249         1.95014         1.94775         1.94536  
       1.94329         1.94133         1.93899         1.93666         1.93446          1.9323         1.93033         1.92861         1.92696         1.92578  
             2         1.99663         1.99187         1.98702         1.98222         1.97762         1.97361         1.97029         1.96702         1.96397  
       1.96092         1.95824         1.95581         1.95319         1.95042         1.94797         1.94548         1.94298         1.94083         1.93878  
       1.93635         1.93393         1.93163         1.92939         1.92733         1.92554         1.92383         1.92261               2         1.99649  
       1.99152         1.98647         1.98147         1.97668         1.97249         1.96903         1.96563         1.96245         1.95928         1.95649  
       1.95395         1.95123         1.94834          1.9458          1.9432         1.94061         1.93837         1.93624         1.93371         1.93119  
        1.9288         1.92647         1.92434         1.92248          1.9207         1.91943               2         1.99634         1.99118         1.98592  
       1.98072         1.97573         1.97138         1.96778         1.96424         1.96093         1.95764         1.95473          1.9521         1.94927  
       1.94627         1.94362         1.94093         1.93823         1.93591          1.9337         1.93107         1.92846         1.92598         1.92356  
       1.92134         1.91942         1.91758         1.91626               2          1.9962         1.99083         1.98537         1.97997         1.97478  
       1.97027         1.96653         1.96285         1.95942         1.95599         1.95298         1.95025         1.94731         1.94419         1.94145  
       1.93866         1.93586         1.93345         1.93116         1.92843         1.92572         1.92315         1.92064         1.91835         1.91635  
       1.91445         1.91309               2         1.99606         1.99049         1.98482         1.97922         1.97384         1.96915         1.96527  
       1.96146          1.9579         1.95435         1.95123          1.9484         1.94535         1.94212         1.93928         1.93638         1.93348  
       1.93099         1.92862         1.92579         1.92299         1.92033         1.91773         1.91535         1.91329         1.91132         1.90992  
             2         1.99592         1.99014         1.98427         1.97846         1.97289         1.96804         1.96402         1.96007         1.95638  
       1.95271         1.94947         1.94654         1.94339         1.94005          1.9371         1.93411         1.93111         1.92853         1.92608  
       1.92315         1.92025          1.9175         1.91482         1.91236         1.91023         1.90819         1.90675               2         1.99577  
        1.9898         1.98372         1.97771         1.97195         1.96692         1.96276         1.95868         1.95487         1.95106         1.94772  
       1.94469         1.94143         1.93797         1.93493         1.93184         1.92873         1.92607         1.92354         1.92051         1.91752  
       1.91467          1.9119         1.90937         1.90717         1.90506         1.90357               2         1.99563         1.98945         1.98317  
       1.97696           1.971         1.96581         1.96151         1.95729         1.95335         1.94942         1.94597         1.94284         1.93947  
        1.9359         1.93276         1.92956         1.92636         1.92361           1.921         1.91788         1.91478         1.91185         1.90899  
       1.90637          1.9041         1.90194          1.9004               2         1.99549         1.98911         1.98262         1.97621         1.97005  
       1.96469         1.96026          1.9559         1.95183         1.94778         1.94421         1.94098         1.93751         1.93383         1.93059  
       1.92729         1.92399         1.92115         1.91846         1.91524         1.91205         1.90902         1.90607         1.90338         1.90104  
       1.89881         1.89723               2         1.99534         1.98876         1.98207         1.97545         1.96911         1.96358           1.959  
       1.95451         1.95031         1.94613         1.94246         1.93913         1.93555         1.93175         1.92841         1.92501         1.92161  
       1.91869         1.91591          1.9126         1.90931          1.9062         1.90316         1.90038         1.89798         1.89568         1.89406  
             2          1.9952         1.98842         1.98152          1.9747         1.96816         1.96246         1.95775         1.95312          1.9488  
       1.94449         1.94071         1.93728         1.93358         1.92968         1.92624         1.92274         1.91924         1.91623         1.91337  
       1.90996         1.90658         1.90337         1.90024         1.89739         1.89491         1.89255         1.89089               2         1.99506  
       1.98807         1.98097         1.97395         1.96721         1.96135          1.9565         1.95173         1.94728         1.94285         1.93895  
       1.93542         1.93162         1.92761         1.92407         1.92047         1.91686         1.91377         1.91083         1.90732         1.90384  
       1.90055         1.89733         1.89439         1.89185         1.88942         1.88771               2         1.99491         1.98773         1.98042  
        1.9732         1.96627         1.96023         1.95524         1.95034         1.94576          1.9412          1.9372         1.93357         1.92966  
       1.92553         1.92189         1.91819         1.91449         1.91131         1.90829         1.90468         1.90111         1.89772         1.89442  
        1.8914         1.88879          1.8863         1.88454               2         1.99477         1.98738         1.97987         1.97245         1.96532  
       1.95912         1.95399         1.94895         1.94425         1.93956         1.93544         1.93172          1.9277         1.92346         1.91972  
       1.91592         1.91211         1.90885         1.90575         1.90204         1.89837         1.89489          1.8915         1.88841         1.88573  
       1.88317         1.88137               2         1.99463         1.98704         1.97932         1.97169         1.96438           1.958         1.95273  
       1.94756         1.94273         1.93792         1.93369         1.92986         1.92574         1.92138         1.91755         1.91365         1.90974  