TITLE     = "AircraftModel"
VARIABLES = "X",
            "Y",
            "Z",
            "CD",
            "CS",
            "CL",
            "CMD",
            "CMS",
            "CML",
            "RefArea",
            "RefLength"


ZONE
T           = "AeroCase:'AC_1'; Alt:6000; M:0.44; Re:1.12892e+07; AoS:0; AoA:0.00355606 Wing:'wing'"
I           = 66
DATAPACKING = POINT
ZONETYPE    = ORDERED
AUXDATA CS  = ""
       8.60042        -14.4518         2.00462       0.0201238     -0.00156672        0.483365        0.057922       -0.169626     -0.00553074        0.226931        0.494165
       8.58356        -13.9926         2.00463       0.0151251     -0.00203274        0.693035      0.00592279       -0.208006     0.000299333        0.260583        0.567459
        8.5667        -13.5334         2.00464      0.00898304     -0.00195757        0.693401      0.00447796       -0.191931    -0.000383337        0.294245        0.640764
       8.54984        -13.0741         2.00465      0.00663767      -0.0018721        0.681007      0.00284192       -0.181548    -0.000361041         0.32791        0.714075
       8.53299        -12.6149         2.00466      0.00528051     -0.00176987        0.662636      0.00207964       -0.172338    -0.000348674        0.361578        0.787391
       8.51613        -12.1557         2.00467      0.00447231     -0.00166995        0.643578      0.00160886        -0.16454    -0.000330005        0.395247        0.860711
       8.49927        -11.6965         2.00468      0.00396836     -0.00157893        0.625297      0.00129245       -0.157867    -0.000311772        0.428918        0.934034
       8.48242        -11.2373         2.00468      0.00364787     -0.00149572        0.608252       0.0010647       -0.152108    -0.000295338         0.46259         1.00736
       8.46556        -10.7781         2.00469       0.0034451     -0.00142105        0.592502      0.00089283       -0.147092     -0.00028086        0.496262         1.08069
       8.44871        -10.3189          2.0047      0.00332218     -0.00135437        0.577959      0.00075836       -0.142684    -0.000268413        0.529935         1.15402
       8.43185        -9.85968         2.00471      0.00325663     -0.00129353        0.564479     0.000649951       -0.138781    -0.000257606        0.563604         1.22734
         8.415        -9.40047         2.00472      0.00323502     -0.00123852        0.551894     0.000560188       -0.135296    -0.000248397        0.597283         1.30068
       8.39815        -8.94126         2.00473      0.00324975     -0.00118741        0.540029     0.000483762       -0.132163     -0.00024046        0.630957         1.37401
       8.38129        -8.48205         2.00474      0.00329766     -0.00114017        0.528692     0.000416637       -0.129325    -0.000233785        0.664632         1.44734
       8.36444        -8.02284         2.00475      0.00337971     -0.00109496        0.517666     0.000355326       -0.126738    -0.000228192        0.698307         1.52067
       8.34759        -7.56363         2.00476      0.00350211     -0.00105193        0.506682     0.000296328       -0.124368    -0.000223817        0.731983           1.594
       8.33073        -7.10442         2.00477      0.00368026     -0.00100812         0.49537     0.000235355       -0.122201    -0.000220959        0.765658         1.66734
       8.31388        -6.64521         2.00478      0.00394466    -0.000962211        0.483157     0.000165211       -0.120273    -0.000219533        0.799335         1.74067
       8.29702          -6.186         2.00479      0.00443007      -0.0009116        0.469092     7.70552e-05       -0.118748    -0.000230243         0.83301         1.81401
       8.28017        -5.72679          2.0048      0.00472308     -0.00083001        0.449892    -0.000153904       -0.118567    -0.000148095        0.866686         1.88734
       8.26332        -5.26758         2.00481      0.00655371    -0.000692809        0.427992     1.28446e-05       -0.123996    -0.000433393        0.900362         1.96067
       8.24646        -4.80837         2.00481      0.00982424    -0.000600715        0.407467    -4.64654e-05       -0.129894    -0.000312669        0.934038         2.03401
       8.22961        -4.34916         2.00482      0.00959658     -0.00056847        0.402189     0.000432081       -0.128107    -0.000228702        0.967714         2.10735
       8.21276        -3.88995         2.00483      0.00340473     -0.00058597        0.429507     0.000968108       -0.119153     0.000190693         1.00139         2.18068
       8.20433        -3.44464          2.0037     -0.00292505      0.00501252        0.496551      0.00150888       -0.112867      0.00213202        0.956613         2.21732
       8.20432        -3.01324         2.00142     -0.00620357      0.00547425        0.588253      0.00127867       -0.111753      0.00215422        0.956595         2.21728
       8.20432        -2.58183         1.99914     -0.00689352      0.00580172        0.642897     0.000458021        -0.11363      0.00216401        0.956593         2.21727
       8.20432        -2.15043         1.99685     -0.00244007      0.00586511        0.645393    -0.000310066       -0.116032      0.00215854        0.956607         2.21731
       8.20434        -1.71903         1.99457      0.00389444       0.0056831        0.612832    -0.000507874       -0.115611      0.00201367        0.956638         2.21738
       8.20435        -1.28762         1.99229      0.00793335      0.00561725          0.6016     4.25586e-05       -0.115342       0.0021561        0.956684         2.21748
       8.20438       -0.856217         1.99001      0.00986884      0.00564307        0.605136     0.000124575        -0.11571      0.00214781        0.956746         2.21763
       8.20441       -0.424813         1.98773       0.0118865      0.00567611         0.61044      0.00013036       -0.115999      0.00216067        0.956826         2.21781
       8.20443       -0.104556         1.98603       0.0133405      0.00571808        0.615013      0.00011106       -0.116873      0.00220383        0.463828         2.21797
       8.20443        0.104556         1.98603       0.0133405     -0.00571808        0.615013     -0.00011106       -0.116873     -0.00220383        0.463828         2.21797
       8.20441        0.424813         1.98773       0.0118865     -0.00567611         0.61044     -0.00013036       -0.115999     -0.00216067        0.956826         2.21781
       8.20438        0.856217         1.99001      0.00986884     -0.00564307        0.605136    -0.000124575        -0.11571     -0.00214781        0.956746         2.21763
       8.20435         1.28762         1.99229      0.00793335     -0.00561725          0.6016    -4.25586e-05       -0.115342      -0.0021561        0.956684         2.21748
       8.20434         1.71903         1.99457      0.00389444      -0.0056831        0.612832     0.000507874       -0.115611     -0.00201367        0.956638         2.21738
       8.20432         2.15043         1.99685     -0.00244007     -0.00586511        0.645393     0.000310066       -0.116032     -0.00215854        0.956607         2.21731
       8.20432         2.58183         1.99914     -0.00689352     -0.00580172        0.642897    -0.000458021        -0.11363     -0.00216401        0.956593         2.21727
       8.20432         3.01324         2.00142     -0.00620357     -0.00547425        0.588253     -0.00127867       -0.111753     -0.00215422        0.956595         2.21728
       8.20433         3.44464          2.0037     -0.00292505     -0.00501252        0.496551     -0.00150888       -0.112867     -0.00213202        0.956613         2.21732
       8.21276         3.88995         2.00483      0.00340473      0.00058597        0.429507    -0.000968108       -0.119153    -0.000190693         1.00139         2.18068
       8.22961         4.34916         2.00482      0.00959658      0.00056847        0.402189    -0.000432081       -0.128107     0.000228702        0.967714         2.10735
       8.24646         4.80837         2.00481      0.00982424     0.000600715        0.407467     4.64654e-05       -0.129894     0.000312669        0.934038         2.03401
       8.26332         5.26758         2.00481      0.00655371     0.000692809        0.427992    -1.28446e-05       -0.123996     0.000433393        0.900362         1.96067
       8.28017         5.72679          2.0048      0.00472308      0.00083001        0.449892     0.000153904       -0.118567     0.000148095        0.866686         1.88734
       8.29702           6.186         2.00479      0.00443007       0.0009116        0.469092    -7.70552e-05       -0.118748     0.000230243         0.83301         1.81401
       8.31388         6.64521         2.00478      0.00394466     0.000962211        0.483157    -0.000165211       -0.120273     0.000219533        0.799335         1.74067
       8.33073         7.10442         2.00477      0.00368026      0.00100812         0.49537    -0.000235355       -0.122201     0.000220959        0.765658         1.66734
       8.34759         7.56363         2.00476      0.00350211      0.00105193        0.506682    -0.000296328       -0.124368     0.000223817        0.731983           1.594
       8.36444         8.02284         2.00475      0.00337971      0.00109496        0.517666    -0.000355326       -0.126738     0.000228192        0.698307         1.52067
       8.38129         8.48205         2.00474      0.00329766      0.00114017        0.528692    -0.000416637       -0.129325     0.000233785        0.664632         1.44734
       8.39815         8.94126         2.00473      0.00324975      0.00118741        0.540029    -0.000483762       -0.132163      0.00024046        0.630957         1.37401
         8.415         9.40047         2.00472      0.00323502      0.00123852        0.551894    -0.000560188       -0.135296     0.000248397        0.597283         1.30068
       8.43185         9.85968         2.00471      0.00325663      0.00129353        0.564479    -0.000649951       -0.138781     0.000257606        0.563604         1.22734
       8.44871         10.3189          2.0047      0.00332218      0.00135437        0.577959     -0.00075836       -0.142684     0.000268413        0.529935         1.15402
       8.46556         10.7781         2.00469       0.0034451      0.00142105        0.592502     -0.00089283       -0.147092      0.00028086        0.496262         1.08069
       8.48242         11.2373         2.00468      0.00364787      0.00149572        0.608252      -0.0010647       -0.152108     0.000295338         0.46259         1.00736
       8.49927         11.6965         2.00468      0.00396836      0.00157893        0.625297     -0.00129245       -0.157867     0.000311772        0.428918        0.934034
       8.51613         12.1557         2.00467      0.00447231      0.00166995        0.643578     -0.00160886        -0.16454     0.000330005        0.395247        0.860711
       8.53299         12.6149         2.00466      0.00528051      0.00176987        0.662636     -0.00207964       -0.172338     0.000348674        0.361578        0.787391
       8.54984         13.0741         2.00465      0.00663767       0.0018721        0.681007     -0.00284192       -0.181548     0.000361041         0.32791        0.714075
        8.5667         13.5334         2.00464      0.00898304      0.00195757        0.693401     -0.00447796       -0.191931     0.000383337        0.294245        0.640764
       8.58356         13.9926         2.00463       0.0151251      0.00203274        0.693035     -0.00592279       -0.208006    -0.000299333        0.260583        0.567459
       8.60042         14.4518         2.00462       0.0201238      0.00156672        0.483365       -0.057922       -0.169626      0.00553074        0.226931        0.494165


ZONE
T           = "AeroCase:'AC_1'; Alt:6000; M:0.44; Re:1.12892e+07; AoS:0; AoA:0.00355606 Wing:'htp'"
I           = 11
DATAPACKING = POINT
ZONETYPE    = ORDERED
AUXDATA CS  = ""
       20.0393        -2.82609             5.3     -0.00125081     -0.00017051      -0.0755757      -0.0111254     -0.00150422     0.000117657         1.11402          1.0169
       19.8912        -1.73058             5.3      -0.0019446    -0.000265161       -0.108825      -0.0018124    -0.000245048     4.58432e-05         1.45881         1.33162
       19.7431       -0.635068             5.3     -0.00170253    -0.000232082        -0.10371     -0.00049981    -6.75771e-05    -2.17515e-05         1.80359         1.64635
       19.6687      -0.0852651             5.3    -0.000752221    -0.000101485      -0.0975815    -8.45844e-10    -1.13655e-10     -1.6991e-09      0.00738448          1.8043
       19.6654      -0.0604636             5.3    -0.000235829    -3.14353e-05      -0.0972192    -7.12421e-08    -9.60521e-09    -2.62902e-06       0.0824383         1.81142
       19.6597      -0.0188542             5.3      0.00732145      0.00100289      -0.0966027     -2.1131e-08    -2.47105e-09     -4.6088e-05       0.0687568         1.82338
       19.6598       0.0189449             5.3      0.00727762    -0.000996013      -0.0966037     2.24957e-08    -2.65327e-09     4.60902e-05       0.0690865         1.82335
       19.6655       0.0615087             5.3    -0.000256984     3.43635e-05      -0.0972333      8.0295e-08    -1.08388e-08     2.73543e-06       0.0855532         1.81112
       19.7428        0.633248             5.3      -0.0017003     0.000231779        -0.10369     0.000498725    -6.74313e-05      2.2194e-05         1.80537         1.64687
        19.891         1.72949             5.3     -0.00194464     0.000265151       -0.108827      0.00181258    -0.000245059    -4.58351e-05         1.46012         1.33194
       20.0392         2.82573             5.3     -0.00125116      0.00017056      -0.0755911       0.0111338     -0.00150537    -0.000117791         1.11488           1.017


ZONE
T           = "AeroCase:'AC_1'; Alt:6000; M:0.44; Re:1.12892e+07; AoS:0; AoA:0.00355606 Wing:'vtp'"
I           = 6
DATAPACKING = POINT
ZONETYPE    = ORDERED
AUXDATA CS  = ""
       17.3978    -1.11596e-17         1.52915     2.87478e-15    -3.04017e-08    -1.97695e-15               0               0               0        0.204057         3.50029
       17.4589    -4.55679e-17         1.61902     4.41046e-15    -7.21372e-08    -3.03383e-15               0               0               0        0.420683         3.46389
       17.5389    -9.06252e-17         1.73671     5.64827e-15    -1.05887e-07    -3.88493e-15               0               0               0        0.389193         3.41622
       18.0452    -3.75855e-16         2.48171      1.3229e-14     -2.9917e-07    -9.09945e-15               0               0               0         4.28573         3.11444
       18.9804    -9.02696e-16         3.85779     4.21265e-13    -1.30904e-06    -2.89761e-13      8.8334e-08               0    -6.00395e-08         3.51869         2.55704
       19.9156    -1.42954e-15         5.23387    -1.50669e-12    -2.83551e-06     1.03635e-12    -1.80714e-07               0     1.22829e-07         2.75165         1.99963
