TITLE     = "AircraftModel"
VARIABLES = "X",
            "Y",
            "Z"


ZONE
T           = "wing_segment_from_wing_section_1_element_1_to_wing_section_2_element_1_symm; Col:1; Row:1; CS:0; Side:Lower"
I           = 28
J           = 23
DATAPACKING = BLOCK
ZONETYPE    = ORDERED
VARLOCATION = (NODAL, NODAL, NODAL)
AUXDATA CS  = ""
# X
       8.26541         8.26584         8.26708          8.2691         8.27189         8.27546         8.27979         8.28488         8.29073         8.29733  
       8.30469         8.31278         8.32161         8.33116         8.34144         8.35242          8.3641         8.37646          8.3895         8.40319  
       8.41754         8.43252         8.44812         8.46432         8.48112         8.49848         8.51639         8.53484         8.23743          8.2379  
       8.23923          8.2414         8.24442         8.24826         8.25293         8.25843         8.26474         8.27187         8.27981         8.28854  
       8.29807         8.30839         8.31948         8.33133         8.34394         8.35729         8.37136         8.38614         8.40163          8.4178  
       8.43465         8.45214         8.47027         8.48901         8.50835         8.52827         8.20946         8.20996         8.21138         8.21371  
       8.21694         8.22107         8.22608         8.23197         8.23875          8.2464         8.25492          8.2643         8.27453         8.28561  
       8.29752         8.31024         8.32378         8.33811         8.35322         8.36909         8.38572         8.40309         8.42117         8.43995  
       8.45942         8.47954         8.50031          8.5217         8.18149         8.18202         8.18354         8.18602         8.18947         8.19387  
       8.19923         8.20552         8.21276         8.22094         8.23004         8.24007           8.251         8.26283         8.27556         8.28915  
       8.30362         8.31893         8.33508         8.35204         8.36981         8.38837          8.4077         8.42777         8.44857         8.47008  
       8.49227         8.51513         8.15351         8.15408         8.15569         8.15833         8.16199         8.16668         8.17237         8.17907  
       8.18678         8.19547         8.20516         8.21583         8.22746         8.24005         8.25359         8.26807         8.28346         8.29976  
       8.31694         8.33499          8.3539         8.37365         8.39422         8.41558         8.43772         8.46061         8.48423         8.50856  
       8.12554         8.12613         8.12784         8.13064         8.13452         8.13948         8.14552         8.15262         8.16079         8.17001  
       8.18028         8.19159         8.20392         8.21727         8.23163         8.24698          8.2633         8.28058          8.2988         8.31794  
         8.338         8.35894         8.38074          8.4034         8.42687         8.45114         8.47619         8.50199         8.09757         8.09819  
       8.09999         8.10294         8.10705         8.11229         8.11867         8.12617          8.1348         8.14455          8.1554         8.16735  
       8.18038          8.1945         8.20967         8.22589         8.24314          8.2614         8.28066         8.30089         8.32209         8.34422  
       8.36727         8.39121         8.41602         8.44168         8.46815         8.49542          8.0696         8.07025         8.07214         8.07525  
       8.07957          8.0851         8.09181         8.09972         8.10881         8.11908         8.13052         8.14311         8.15685         8.17172  
       8.18771          8.2048         8.22298         8.24223         8.26252         8.28384         8.30618          8.3295         8.35379         8.37903  
       8.40517         8.43221         8.46011         8.48885         8.04162         8.04231          8.0443         8.04756          8.0521          8.0579  
       8.06496         8.07327         8.08282         8.09362         8.10564         8.11887         8.13331         8.14894         8.16575         8.18371  
       8.20282         8.22305         8.24438         8.26679         8.29027         8.31479         8.34032         8.36684         8.39433         8.42274  
       8.45207         8.48227         8.01365         8.01437         8.01645         8.01987         8.02462         8.03071         8.03811         8.04682  
       8.05684         8.06815         8.08076         8.09463         8.10977         8.12616         8.14379         8.16262         8.18266         8.20387  
       8.22624         8.24974         8.27436         8.30007         8.32684         8.35466         8.38348         8.41328         8.44403          8.4757  
       7.98568         7.98643          7.9886         7.99218         7.99715         8.00351         8.01125         8.02037         8.03085         8.04269  
       8.05588          8.0704         8.08624         8.10338         8.12183         8.14153          8.1625          8.1847          8.2081         8.23269  
       8.25845         8.28536         8.31337         8.34247         8.37263         8.40381         8.43599         8.46913          7.9577         7.95848  
       7.96075         7.96448         7.96967         7.97632          7.9844         7.99392         8.00486         8.01722           8.031         8.04616  
        8.0627         8.08061         8.09986         8.12045         8.14234         8.16552         8.18996         8.21564         8.24254         8.27064  
       8.29989         8.33029         8.36178         8.39434         8.42795         8.46256         7.92973         7.93054          7.9329         7.93679  
        7.9422         7.94912         7.95755         7.96746         7.97887         7.99176         8.00611         8.02192         8.03916         8.05783  
        8.0779         8.09936         8.12218         8.14634         8.17182         8.19859         8.22664         8.25592         8.28642          8.3181  
       8.35093         8.38488         8.41991         8.45599         7.90176          7.9026         7.90506          7.9091         7.91473         7.92193  
       7.93069         7.94101         7.95288         7.96629         7.98123         7.99768         8.01562         8.03505         8.05594         8.07827  
       8.10202         8.12717         8.15368         8.18154         8.21073         8.24121         8.27294         8.30591         8.34008         8.37541  
       8.41187         8.44942         7.87378         7.87466         7.87721         7.88141         7.88725         7.89473         7.90384         7.91456  
        7.9269         7.94083         7.95635         7.97344         7.99209         8.01227         8.03398         8.05718         8.08186         8.10799  
       8.13554         8.16449         8.19482         8.22649         8.25947         8.29373         8.32923         8.36594         8.40383         8.44285  
       7.84581         7.84672         7.84936         7.85372         7.85978         7.86754         7.87699         7.88811         7.90091         7.91537  
       7.93147          7.9492         7.96855         7.98949         8.01202         8.03609          8.0617         8.08881          8.1174         8.14744  
       8.17891         8.21177         8.24599         8.28154         8.31838         8.35648         8.39579         8.43628         7.81784         7.81878  
       7.82151         7.82602          7.8323         7.84034         7.85013         7.86166         7.87492          7.8899         7.90659         7.92497  
       7.94501         7.96672         7.99006           8.015         8.04154         8.06964         8.09926         8.13039           8.163         8.19706  
       8.23252         8.26936         8.30754         8.34701         8.38775         8.42971         7.78987         7.79083         7.79366         7.79833  
       7.80483         7.81315         7.82328         7.83521         7.84893         7.86444         7.88171         7.90073         7.92147         7.94394  
        7.9681         7.99392         8.02138         8.05046         8.08112         8.11334         8.14709         8.18234         8.21904         8.25717  
       8.29669         8.33755         8.37971         8.42314         7.76189         7.76289         7.76582         7.77064         7.77735         7.78596  
       7.79643         7.80876         7.82294         7.83897         7.85683         7.87649         7.89794         7.92116         7.94613         7.97283  
       8.00122         8.03128         8.06298         8.09629         8.13118         8.16762         8.20557         8.24499         8.28584         8.32808  
       8.37167         8.41657         7.73392         7.73495         7.73797         7.74295         7.74988         7.75876         7.76957         7.78231  
       7.79696         7.81351         7.83195         7.85225          7.8744         7.89838         7.92417         7.95174         7.98106         8.01211  
       8.04484         8.07924         8.11528         8.15291         8.19209          8.2328         8.27499         8.31861         8.36363            8.41  
       7.70595         7.70701         7.71012         7.71525         7.72241         7.73157         7.74272         7.75586         7.77097         7.78804  
       7.80707         7.82801         7.85086          7.8756         7.90221         7.93065          7.9609         7.99293          8.0267         8.06219  
       8.09937         8.13819         8.17862         8.22062         8.26414         8.30915         8.35559         8.40343         7.67797         7.67907  
       7.68227         7.68756         7.69493         7.70437         7.71587          7.7294         7.74498         7.76258         7.78218         7.80377  
       7.82733         7.85283         7.88025         7.90956         7.94074         7.97375         8.00856         8.04514         8.08346         8.12347  
       8.16514         8.20843         8.25329         8.29968         8.34755         8.39686            7.65         7.65113         7.65442         7.65987  
       7.66746         7.67718         7.68901         7.70295         7.71899         7.73711          7.7573         7.77953         7.80379         7.83005  
       7.85829         7.88847         7.92058         7.95457         7.99042         8.02809         8.06755         8.10876         8.15167         8.19625  
       8.24244         8.29021         8.33951         8.39029  
# Y
      -11.6916        -11.6916        -11.6916        -11.6916        -11.6916        -11.6916        -11.6916        -11.6916        -11.6916        -11.6916  
      -11.6916        -11.6916        -11.6916        -11.6916        -11.6916        -11.6916        -11.6916        -11.6916        -11.6916        -11.6916  
      -11.6916        -11.6916        -11.6916        -11.6916        -11.6916        -11.6916        -11.6916        -11.6916        -11.3266        -11.3266  
      -11.3266        -11.3266        -11.3266        -11.3266        -11.3266        -11.3266        -11.3266        -11.3266        -11.3266        -11.3266  
      -11.3266        -11.3266        -11.3266        -11.3266        -11.3266        -11.3266        -11.3266        -11.3266        -11.3266        -11.3266  
      -11.3266        -11.3266        -11.3266        -11.3266        -11.3266        -11.3266        -10.9615        -10.9615        -10.9615        -10.9615  
      -10.9615        -10.9615        -10.9615        -10.9615        -10.9615        -10.9615        -10.9615        -10.9615        -10.9615        -10.9615  
      -10.9615        -10.9615        -10.9615        -10.9615        -10.9615        -10.9615        -10.9615        -10.9615        -10.9615        -10.9615  
      -10.9615        -10.9615        -10.9615        -10.9615        -10.5965        -10.5965        -10.5965        -10.5965        -10.5965        -10.5965  
      -10.5965        -10.5965        -10.5965        -10.5965        -10.5965        -10.5965        -10.5965        -10.5965        -10.5965        -10.5965  
      -10.5965        -10.5965        -10.5965        -10.5965        -10.5965        -10.5965        -10.5965        -10.5965        -10.5965        -10.5965  
      -10.5965        -10.5965        -10.2314        -10.2314        -10.2314        -10.2314        -10.2314        -10.2314        -10.2314        -10.2314  
      -10.2314        -10.2314        -10.2314        -10.2314        -10.2314        -10.2314        -10.2314        -10.2314        -10.2314        -10.2314  
      -10.2314        -10.2314        -10.2314        -10.2314        -10.2314        -10.2314        -10.2314        -10.2314        -10.2314        -10.2314  
      -9.86634        -9.86634        -9.86634        -9.86634        -9.86634        -9.86634        -9.86634        -9.86634        -9.86634        -9.86634  
      -9.86634        -9.86634        -9.86634        -9.86634        -9.86634        -9.86634        -9.86634        -9.86634        -9.86634        -9.86634  
      -9.86634        -9.86634        -9.86634        -9.86634        -9.86634        -9.86634        -9.86634        -9.86634        -9.50129        -9.50129  
      -9.50129        -9.50129        -9.50129        -9.50129        -9.50129        -9.50129        -9.50129        -9.50129        -9.50129        -9.50129  
      -9.50129        -9.50129        -9.50129        -9.50129        -9.50129        -9.50129        -9.50129        -9.50129        -9.50129        -9.50129  
      -9.50129        -9.50129        -9.50129        -9.50129        -9.50129        -9.50129        -9.13623        -9.13623        -9.13623        -9.13623  
      -9.13623        -9.13623        -9.13623        -9.13623        -9.13623        -9.13623        -9.13623        -9.13623        -9.13623        -9.13623  
      -9.13623        -9.13623        -9.13623        -9.13623        -9.13623        -9.13623        -9.13623        -9.13623        -9.13623        -9.13623  
      -9.13623        -9.13623        -9.13623        -9.13623        -8.77117        -8.77117        -8.77117        -8.77117        -8.77117        -8.77117  
      -8.77117        -8.77117        -8.77117        -8.77117        -8.77117        -8.77117        -8.77117        -8.77117        -8.77117        -8.77117  
      -8.77117        -8.77117        -8.77117        -8.77117        -8.77117        -8.77117        -8.77117        -8.77117        -8.77117        -8.77117  
      -8.77117        -8.77117        -8.40611        -8.40611        -8.40611        -8.40611        -8.40611        -8.40611        -8.40611        -8.40611  
      -8.40611        -8.40611        -8.40611        -8.40611        -8.40611        -8.40611        -8.40611        -8.40611        -8.40611        -8.40611  
      -8.40611        -8.40611        -8.40611        -8.40611        -8.40611        -8.40611        -8.40611        -8.40611        -8.40611        -8.40611  
      -8.04105        -8.04105        -8.04105        -8.04105        -8.04105        -8.04105        -8.04105        -8.04105        -8.04105        -8.04105  
      -8.04105        -8.04105        -8.04105        -8.04105        -8.04105        -8.04105        -8.04105        -8.04105        -8.04105        -8.04105  
      -8.04105        -8.04105        -8.04105        -8.04105        -8.04105        -8.04105        -8.04105        -8.04105        -7.67599        -7.67599  
      -7.67599        -7.67599        -7.67599        -7.67599        -7.67599        -7.67599        -7.67599        -7.67599        -7.67599        -7.67599  
      -7.67599        -7.67599        -7.67599        -7.67599        -7.67599        -7.67599        -7.67599        -7.67599        -7.67599        -7.67599  
      -7.67599        -7.67599        -7.67599        -7.67599        -7.67599        -7.67599        -7.31093        -7.31093        -7.31093        -7.31093  
      -7.31093        -7.31093        -7.31093        -7.31093        -7.31093        -7.31093        -7.31093        -7.31093        -7.31093        -7.31093  
      -7.31093        -7.31093        -7.31093        -7.31093        -7.31093        -7.31093        -7.31093        -7.31093        -7.31093        -7.31093  
      -7.31093        -7.31093        -7.31093        -7.31093        -6.94587        -6.94587        -6.94587        -6.94587        -6.94587        -6.94587  
      -6.94587        -6.94587        -6.94587        -6.94587        -6.94587        -6.94587        -6.94587        -6.94587        -6.94587        -6.94587  
      -6.94587        -6.94587        -6.94587        -6.94587        -6.94587        -6.94587        -6.94587        -6.94587        -6.94587        -6.94587  
      -6.94587        -6.94587        -6.58081        -6.58081        -6.58081        -6.58081        -6.58081        -6.58081        -6.58081        -6.58081  
      -6.58081        -6.58081        -6.58081        -6.58081        -6.58081        -6.58081        -6.58081        -6.58081        -6.58081        -6.58081  
      -6.58081        -6.58081        -6.58081        -6.58081        -6.58081        -6.58081        -6.58081        -6.58081        -6.58081        -6.58081  
      -6.21576        -6.21576        -6.21576        -6.21576        -6.21576        -6.21576        -6.21576        -6.21576        -6.21576        -6.21576  
      -6.21576        -6.21576        -6.21576        -6.21576        -6.21576        -6.21576        -6.21576        -6.21576        -6.21576        -6.21576  
      -6.21576        -6.21576        -6.21576        -6.21576        -6.21576        -6.21576        -6.21576        -6.21576         -5.8507         -5.8507  
       -5.8507         -5.8507         -5.8507         -5.8507         -5.8507         -5.8507         -5.8507         -5.8507         -5.8507         -5.8507  
       -5.8507         -5.8507         -5.8507         -5.8507         -5.8507         -5.8507         -5.8507         -5.8507         -5.8507         -5.8507  
       -5.8507         -5.8507         -5.8507         -5.8507         -5.8507         -5.8507        -5.48564        -5.48564        -5.48564        -5.48564  
      -5.48564        -5.48564        -5.48564        -5.48564        -5.48564        -5.48564        -5.48564        -5.48564        -5.48564        -5.48564  
      -5.48564        -5.48564        -5.48564        -5.48564        -5.48564        -5.48564        -5.48564        -5.48564        -5.48564        -5.48564  
      -5.48564        -5.48564        -5.48564        -5.48564        -5.12058        -5.12058        -5.12058        -5.12058        -5.12058        -5.12058  
      -5.12058        -5.12058        -5.12058        -5.12058        -5.12058        -5.12058        -5.12058        -5.12058        -5.12058        -5.12058  
      -5.12058        -5.12058        -5.12058        -5.12058        -5.12058        -5.12058        -5.12058        -5.12058        -5.12058        -5.12058  
      -5.12058        -5.12058        -4.75552        -4.75552        -4.75552        -4.75552        -4.75552        -4.75552        -4.75552        -4.75552  
      -4.75552        -4.75552        -4.75552        -4.75552        -4.75552        -4.75552        -4.75552        -4.75552        -4.75552        -4.75552  
      -4.75552        -4.75552        -4.75552        -4.75552        -4.75552        -4.75552        -4.75552        -4.75552        -4.75552        -4.75552  
      -4.39046        -4.39046        -4.39046        -4.39046        -4.39046        -4.39046        -4.39046        -4.39046        -4.39046        -4.39046  
      -4.39046        -4.39046        -4.39046        -4.39046        -4.39046        -4.39046        -4.39046        -4.39046        -4.39046        -4.39046  
      -4.39046        -4.39046        -4.39046        -4.39046        -4.39046        -4.39046        -4.39046        -4.39046         -4.0254         -4.0254  
       -4.0254         -4.0254         -4.0254         -4.0254         -4.0254         -4.0254         -4.0254         -4.0254         -4.0254         -4.0254  
       -4.0254         -4.0254         -4.0254         -4.0254         -4.0254         -4.0254         -4.0254         -4.0254         -4.0254         -4.0254  
       -4.0254         -4.0254         -4.0254         -4.0254         -4.0254         -4.0254        -3.66034        -3.66034        -3.66034        -3.66034  
      -3.66034        -3.66034        -3.66034        -3.66034        -3.66034        -3.66034        -3.66034        -3.66034        -3.66034        -3.66034  
      -3.66034        -3.66034        -3.66034        -3.66034        -3.66034        -3.66034        -3.66034        -3.66034        -3.66034        -3.66034  
      -3.66034        -3.66034        -3.66034        -3.66034  
# Z
             2         1.99735         1.99361         1.98981         1.98606         1.98247         1.97935         1.97678         1.97427         1.97192  
        1.9696         1.96756         1.96573         1.96376         1.96167         1.95985           1.958         1.95615         1.95459         1.95311  
       1.95132         1.94956          1.9479         1.94629         1.94483         1.94359         1.94242         1.94163               2         1.99721  
       1.99326         1.98926         1.98531         1.98152         1.97823         1.97552         1.97286         1.97039         1.96793         1.96578  
       1.96385         1.96176         1.95956         1.95763         1.95568         1.95372         1.95206         1.95049          1.9486         1.94674  
       1.94498         1.94327         1.94172          1.9404         1.93915         1.93831               2         1.99706         1.99292         1.98871  
       1.98455         1.98057         1.97711         1.97425         1.97146         1.96886         1.96627           1.964         1.96196         1.95977  
       1.95745         1.95541         1.95335         1.95129         1.94953         1.94788         1.94588         1.94391         1.94206         1.94025  
       1.93861         1.93722         1.93589           1.935               2         1.99692         1.99257         1.98815         1.98379         1.97962  
       1.97598         1.97299         1.97006         1.96732          1.9646         1.96223         1.96008         1.95777         1.95533         1.95319  
       1.95102         1.94885         1.94701         1.94526         1.94316         1.94109         1.93913         1.93723         1.93551         1.93403  
       1.93263         1.93168               2         1.99678         1.99223          1.9876         1.98304         1.97866         1.97486         1.97173  
       1.96865         1.96579         1.96294         1.96045          1.9582         1.95578         1.95322         1.95097          1.9487         1.94642  
       1.94448         1.94265         1.94044         1.93827         1.93621         1.93421          1.9324         1.93084         1.92937         1.92836  
             2         1.99663         1.99188         1.98705         1.98228         1.97771         1.97374         1.97046         1.96725         1.96425  
       1.96128         1.95867         1.95632         1.95378          1.9511         1.94876         1.94637         1.94399         1.94196         1.94003  
       1.93772         1.93544         1.93329         1.93119         1.92929         1.92766         1.92611         1.92505               2         1.99649  
       1.99154          1.9865         1.98153         1.97676         1.97262          1.9692         1.96585         1.96272         1.95961         1.95689  
       1.95443         1.95179         1.94899         1.94654         1.94404         1.94155         1.93943         1.93742           1.935         1.93262  
       1.93036         1.92817         1.92618         1.92447         1.92284         1.92173               2         1.99635         1.99119         1.98595  
       1.98077         1.97581         1.97149         1.96793         1.96444         1.96119         1.95795         1.95511         1.95255         1.94979  
       1.94688         1.94432         1.94172         1.93912          1.9369          1.9348         1.93228         1.92979         1.92744         1.92515  
       1.92307         1.92128         1.91958         1.91842               2          1.9962         1.99084         1.98539         1.98002         1.97486  
       1.97037         1.96667         1.96304         1.95965         1.95628         1.95333         1.95067          1.9478         1.94476          1.9421  
       1.93939         1.93669         1.93438         1.93219         1.92957         1.92697         1.92452         1.92213         1.91996         1.91809  
       1.91632          1.9151               2         1.99606          1.9905         1.98484         1.97926         1.97391         1.96925         1.96541  
       1.96164         1.95812         1.95462         1.95155         1.94878          1.9458         1.94265         1.93988         1.93707         1.93425  
       1.93185         1.92957         1.92685         1.92414         1.92159         1.91911         1.91685         1.91491         1.91306         1.91179  
             2         1.99592         1.99015         1.98429          1.9785         1.97296         1.96813         1.96414         1.96023         1.95659  
       1.95296         1.94977          1.9469         1.94381         1.94053         1.93766         1.93474         1.93182         1.92932         1.92696  
       1.92413         1.92132         1.91867         1.91609         1.91374         1.91172          1.9098         1.90847               2         1.99578  
       1.98981         1.98374         1.97775           1.972           1.967         1.96288         1.95883         1.95505         1.95129           1.948  
       1.94502         1.94181         1.93842         1.93544         1.93241         1.92938          1.9268         1.92434         1.92141          1.9185  
       1.91575         1.91307         1.91063         1.90853         1.90654         1.90515               2         1.99563         1.98946         1.98319  
       1.97699         1.97105         1.96588         1.96161         1.95743         1.95352         1.94963         1.94622         1.94314         1.93982  
        1.9363         1.93322         1.93009         1.92695         1.92427         1.92173         1.91869         1.91567         1.91282         1.91005  
       1.90752         1.90535         1.90327         1.90184               2         1.99549         1.98912         1.98264         1.97624          1.9701  
       1.96476         1.96035         1.95602         1.95198         1.94796         1.94444         1.94125         1.93782         1.93419           1.931  
       1.92776         1.92452         1.92175         1.91912         1.91597         1.91285          1.9099         1.90703         1.90441         1.90216  
       1.90001         1.89852               2         1.99535         1.98877         1.98208         1.97548         1.96915         1.96364         1.95909  
       1.95462         1.95045          1.9463         1.94266         1.93937         1.93582         1.93208         1.92878         1.92544         1.92208  
       1.91922          1.9165         1.91325         1.91002         1.90698         1.90401          1.9013         1.89897         1.89675         1.89521  
             2          1.9952         1.98842         1.98153         1.97473          1.9682         1.96251         1.95782         1.95322         1.94892  
       1.94464         1.94088         1.93749         1.93383         1.92996         1.92656         1.92311         1.91965         1.91669         1.91389  
       1.91053          1.9072         1.90405         1.90099         1.89819         1.89578         1.89349         1.89189               2         1.99506  
       1.98808         1.98098         1.97397         1.96725         1.96139         1.95656         1.95181         1.94738         1.94297          1.9391  
        1.9356         1.93183         1.92785         1.92434         1.92078         1.91722         1.91417         1.91127         1.90781         1.90438  
       1.90113         1.89797         1.89508          1.8926         1.89023         1.88858               2         1.99492         1.98773         1.98043  
       1.97322          1.9663         1.96027         1.95529         1.95041         1.94585         1.94131         1.93732         1.93372         1.92984  
       1.92573         1.92213         1.91846         1.91478         1.91164         1.90866         1.90509         1.90155         1.89821         1.89495  
       1.89197         1.88941         1.88697         1.88526               2         1.99477         1.98739         1.97988         1.97246         1.96534  
       1.95915         1.95403         1.94901         1.94432         1.93964         1.93555         1.93184         1.92784         1.92362         1.91991  
       1.91613         1.91235         1.90911         1.90604         1.90237         1.89873         1.89528         1.89193         1.88887         1.88622  
        1.8837         1.88194               2         1.99463         1.98704         1.97932          1.9717         1.96439         1.95803         1.95277  
        1.9476         1.94278         1.93798         1.93377         1.92995         1.92585         1.92151         1.91769          1.9138         1.90992  