TITLE     = "AircraftModel"
VARIABLES = "X",
            "Y",
            "Z",
            "CD",
            "CS",
            "CL",
            "CMD",
            "CMS",
            "CML",
            "RefArea",
            "RefLength"


ZONE
T           = "AeroCase:'AC_1'; Alt:6000; M:0.44; Re:1.12892e+07; AoS:0; AoA:1.42396 Wing:'wing'"
I           = 68
DATAPACKING = POINT
ZONETYPE    = ORDERED
AUXDATA CS  = ""
       8.29722        -10.6308         2.00374       0.0356847     -0.00509646        0.591147       0.0583649       -0.174829     -0.00938621        0.153865        0.452505
       8.29269        -10.2907          2.0038       0.0282241     -0.00573437        0.857221      0.00773543       -0.213435     -0.00094552        0.183124        0.538569
       8.28815        -9.95073         2.00385       0.0178901     -0.00512164        0.860488       0.0050488       -0.195191     -0.00150874         0.21239        0.624642
       8.28362        -9.61071          2.0039       0.0137325     -0.00472816        0.843731      0.00316877       -0.182404       -0.001324         0.24166        0.710722
       8.27909        -9.27069         2.00396       0.0113383     -0.00437053        0.819407        0.002244       -0.171503     -0.00119533        0.270931        0.796805
       8.27455        -8.93067         2.00401      0.00992782     -0.00406539        0.794253      0.00168271       -0.162452      -0.0010881        0.300202        0.882892
       8.27002        -8.59065         2.00406      0.00907156     -0.00380108        0.770161      0.00131056        -0.15485    -0.000999757        0.329474         0.96898
       8.26549        -8.25063         2.00412      0.00855315     -0.00357379        0.747645      0.00104686       -0.148391    -0.000927812        0.358746         1.05507
       8.26096        -7.91061         2.00417      0.00825496     -0.00337646          0.7267      0.00085044       -0.142838    -0.000868902        0.388019         1.14116
       8.25643        -7.57059         2.00422      0.00811109     -0.00319993        0.707121     0.000697928       -0.138012     -0.00081918        0.417292         1.22725
        8.2519        -7.23056         2.00428      0.00808617     -0.00304486        0.688616     0.000574788       -0.133784    -0.000778296        0.446566         1.31335
       8.24737        -6.89054         2.00433      0.00816692     -0.00290166        0.670837     0.000471151       -0.130062    -0.000743672        0.475839         1.39944
       8.24284        -6.55052         2.00438      0.00836248      -0.0027686        0.653359     0.000379377       -0.126809    -0.000715799        0.505115         1.48554
       8.23831         -6.2105         2.00444      0.00870843     -0.00264196        0.635615     0.000291567       -0.124067    -0.000694284        0.534387         1.57163
       8.23378        -5.87048         2.00449      0.00940962     -0.00251882        0.616768     0.000200864       -0.122045     -0.00069476        0.563661         1.65772
       8.22925        -5.53046         2.00454       0.0110807     -0.00236462        0.595466     0.000128592       -0.122124    -0.000696677        0.592936         1.74382
       8.22472        -5.19044          2.0046       0.0152983     -0.00214303        0.578083     8.18021e-05       -0.128075    -0.000788343         0.62221         1.82992
       8.22019        -4.85042         2.00465       0.0180543     -0.00195632        0.558011     0.000106305       -0.132045    -0.000796795        0.651484         1.91601
       8.21566        -4.51039          2.0047       0.0189327     -0.00185454        0.547025     0.000278616       -0.132137    -0.000761018        0.680759         2.00211
       8.21113        -4.17037         2.00476       0.0177812     -0.00190515        0.556291      0.00062821       -0.129496    -0.000717219        0.710033          2.0882
        8.2066        -3.83035         2.00481       0.0103235     -0.00237427        0.587023     0.000599024       -0.126254    -0.000271318        0.739308          2.1743
       8.20433        -3.50347         2.00401      0.00623432      0.00576937        0.627786     0.000713772        -0.11588      0.00188658         0.69572         2.21733
       8.20432        -3.18972         2.00235      0.00539185      0.00605885        0.696233     0.000930515       -0.112368      0.00263579         0.69571         2.21729
       8.20432        -2.87597         2.00069     -0.00494861      0.00635787        0.754479     0.000605148       -0.112093      0.00238331        0.695702         2.21727
       8.20432        -2.56222         1.99903     -0.00480213      0.00656119        0.787303     0.000277326       -0.113525      0.00235311        0.695703         2.21727
       8.20432        -2.24848         1.99737    -0.000525866      0.00661588        0.791162    -3.52859e-05       -0.115178      0.00233855        0.695712         2.21729
       8.20433        -1.93473         1.99571      0.00504269      0.00652622        0.771966    -0.000256402       -0.115692      0.00232863        0.695723         2.21733
       8.20434        -1.62098         1.99405       0.0103187       0.0063242        0.739847    -0.000143645       -0.114201      0.00228255        0.695742         2.21739
       8.20435        -1.30723          1.9924       0.0131615       0.0063077        0.735296     0.000106772       -0.114561      0.00229004        0.695769         2.21748
       8.20437       -0.993482         1.99074       0.0150832      0.00632808         0.73787     0.000137694       -0.114923       0.0023053        0.695799         2.21758
       8.20439       -0.679734         1.98908       0.0168205      0.00635358        0.741708     0.000152076       -0.115156      0.00231299        0.695837          2.2177
       8.20441       -0.365986         1.98742       0.0185633      0.00637663         0.74558     0.000154108       -0.115374      0.00232068        0.695881         2.21784
       8.20443       -0.156833         1.98631       0.0197652       0.0063945        0.747958     0.000121641       -0.115645      0.00234388        0.231911         2.21794
       8.20444      -0.0522779         1.98576       0.0204274       0.0064562        0.752756     0.000180839        -0.11732      0.00237219        0.231917           2.218
       8.20444       0.0522779         1.98576       0.0204274      -0.0064562        0.752756    -0.000180839        -0.11732     -0.00237219        0.231917           2.218
       8.20443        0.156833         1.98631       0.0197652      -0.0063945        0.747958    -0.000121641       -0.115645     -0.00234388        0.231911         2.21794
       8.20441        0.365986         1.98742       0.0185633     -0.00637663         0.74558    -0.000154108       -0.115374     -0.00232068        0.695881         2.21784
       8.20439        0.679734         1.98908       0.0168205     -0.00635358        0.741708    -0.000152076       -0.115156     -0.00231299        0.695837          2.2177
       8.20437        0.993482         1.99074       0.0150832     -0.00632808         0.73787    -0.000137694       -0.114923      -0.0023053        0.695799         2.21758
       8.20435         1.30723          1.9924       0.0131615      -0.0063077        0.735296    -0.000106772       -0.114561     -0.00229004        0.695769         2.21748
       8.20434         1.62098         1.99405       0.0103187      -0.0063242        0.739847     0.000143645       -0.114201     -0.00228255        0.695742         2.21739
       8.20433         1.93473         1.99571      0.00504269     -0.00652622        0.771966     0.000256402       -0.115692     -0.00232863        0.695723         2.21733
       8.20432         2.24848         1.99737    -0.000525866     -0.00661588        0.791162     3.52859e-05       -0.115178     -0.00233855        0.695712         2.21729
       8.20432         2.56222         1.99903     -0.00480213     -0.00656119        0.787303    -0.000277326       -0.113525     -0.00235311        0.695703         2.21727
       8.20432         2.87597         2.00069     -0.00494861     -0.00635787        0.754479    -0.000605148       -0.112093     -0.00238331        0.695702         2.21727
       8.20432         3.18972         2.00235      0.00539185     -0.00605885        0.696233    -0.000930515       -0.112368     -0.00263579         0.69571         2.21729
       8.20433         3.50347         2.00401      0.00623432     -0.00576937        0.627786    -0.000713772        -0.11588     -0.00188658         0.69572         2.21733
        8.2066         3.83035         2.00481       0.0103235      0.00237427        0.587023    -0.000599024       -0.126254     0.000271318        0.739308          2.1743
       8.21113         4.17037         2.00476       0.0177812      0.00190515        0.556291     -0.00062821       -0.129496     0.000717219        0.710033          2.0882
       8.21566         4.51039          2.0047       0.0189327      0.00185454        0.547025    -0.000278616       -0.132137     0.000761018        0.680759         2.00211
       8.22019         4.85042         2.00465       0.0180543      0.00195632        0.558011    -0.000106305       -0.132045     0.000796795        0.651484         1.91601
       8.22472         5.19044          2.0046       0.0152983      0.00214303        0.578083    -8.18021e-05       -0.128075     0.000788343         0.62221         1.82992
       8.22925         5.53046         2.00454       0.0110807      0.00236462        0.595466    -0.000128592       -0.122124     0.000696677        0.592936         1.74382
       8.23378         5.87048         2.00449      0.00940962      0.00251882        0.616768    -0.000200864       -0.122045      0.00069476        0.563661         1.65772
       8.23831          6.2105         2.00444      0.00870843      0.00264196        0.635615    -0.000291567       -0.124067     0.000694284        0.534387         1.57163
       8.24284         6.55052         2.00438      0.00836248       0.0027686        0.653359    -0.000379377       -0.126809     0.000715799        0.505115         1.48554
       8.24737         6.89054         2.00433      0.00816692      0.00290166        0.670837    -0.000471151       -0.130062     0.000743672        0.475839         1.39944
        8.2519         7.23056         2.00428      0.00808617      0.00304486        0.688616    -0.000574788       -0.133784     0.000778296        0.446566         1.31335
       8.25643         7.57059         2.00422      0.00811109      0.00319993        0.707121    -0.000697928       -0.138012      0.00081918        0.417292         1.22725
       8.26096         7.91061         2.00417      0.00825496      0.00337646          0.7267     -0.00085044       -0.142838     0.000868902        0.388019         1.14116
       8.26549         8.25063         2.00412      0.00855315      0.00357379        0.747645     -0.00104686       -0.148391     0.000927812        0.358746         1.05507
       8.27002         8.59065         2.00406      0.00907156      0.00380108        0.770161     -0.00131056        -0.15485     0.000999757        0.329474         0.96898
       8.27455         8.93067         2.00401      0.00992782      0.00406539        0.794253     -0.00168271       -0.162452       0.0010881        0.300202        0.882892
       8.27909         9.27069         2.00396       0.0113383      0.00437053        0.819407       -0.002244       -0.171503      0.00119533        0.270931        0.796805
       8.28362         9.61071          2.0039       0.0137325      0.00472816        0.843731     -0.00316877       -0.182404        0.001324         0.24166        0.710722
       8.28815         9.95073         2.00385       0.0178901      0.00512164        0.860488      -0.0050488       -0.195191      0.00150874         0.21239        0.624642
       8.29269         10.2907          2.0038       0.0282241      0.00573437        0.857221     -0.00773543       -0.213435      0.00094552        0.183124        0.538569
       8.29722         10.6308         2.00374       0.0356847      0.00509646        0.591147      -0.0583649       -0.174829      0.00938621        0.153865        0.452505


ZONE
T           = "AeroCase:'AC_1'; Alt:6000; M:0.44; Re:1.12892e+07; AoS:0; AoA:1.42396 Wing:'htp'"
I           = 11
DATAPACKING = POINT
ZONETYPE    = ORDERED
AUXDATA CS  = ""
       20.0393        -2.82609             5.3    -0.000480923    -9.12487e-06      -0.0166369      -0.0026667    -0.000360702     7.73924e-05         1.11402          1.0169
       19.8912        -1.73058             5.3    -0.000877777     -2.1349e-05      -0.0289684    -0.000795466    -0.000107608     2.64746e-05         1.45881         1.33162
       19.7431       -0.635068             5.3    -0.000915132    -2.23563e-05      -0.0301719    -0.000210707    -2.84943e-05     4.23006e-06         1.80359         1.64635
       19.6687      -0.0852651             5.3    -0.000801011    -1.15532e-05      -0.0287738    -3.45812e-10    -4.69427e-11     1.45257e-10      0.00738448          1.8043
       19.6654      -0.0604636             5.3    -0.000752791     -5.4479e-06      -0.0286706    -3.51906e-08    -3.97941e-09    -2.30658e-07       0.0824383         1.81142
       19.6597      -0.0188542             5.3    -8.28335e-05     8.46088e-05      -0.0285075    -1.06612e-07    -7.77781e-10    -4.05744e-06       0.0687568         1.82338
       19.6598       0.0189449             5.3    -8.66873e-05    -8.40138e-05      -0.0285077     1.07107e-07    -8.43344e-10     4.05761e-06       0.0690865         1.82335
       19.6655       0.0615087             5.3    -0.000754676     5.69511e-06      -0.0286746     3.89968e-08    -4.46862e-09     2.39465e-07       0.0855532         1.81112
       19.7428        0.633248             5.3    -0.000914844     2.23317e-05      -0.0301676     0.000210259    -2.84338e-05    -4.17656e-06         1.80537         1.64687
        19.891         1.72949             5.3    -0.000877931     2.13539e-05      -0.0289728      0.00079568    -0.000107631    -2.64812e-05         1.46012         1.33194
       20.0392         2.82573             5.3    -0.000481099     9.13024e-06      -0.0166425      0.00266908    -0.000361028    -7.74664e-05         1.11488           1.017


ZONE
T           = "AeroCase:'AC_1'; Alt:6000; M:0.44; Re:1.12892e+07; AoS:0; AoA:1.42396 Wing:'vtp'"
I           = 6
DATAPACKING = POINT
ZONETYPE    = ORDERED
AUXDATA CS  = ""
       17.3978    -1.11596e-17         1.52915     3.85737e-16    -1.10381e-08    -2.76429e-16               0               0               0        0.204057         3.50029
       17.4589    -4.55679e-17         1.61902     5.94025e-16    -2.62104e-08    -4.25804e-16               0               0               0        0.420683         3.46389
       17.5389    -9.06252e-17         1.73671     7.64429e-16    -3.85099e-08    -5.47903e-16               0               0               0        0.389193         3.41622
       18.0452    -3.75855e-16         2.48171     1.89795e-15    -1.09995e-07    -1.36041e-15               0               0               0         4.28573         3.11444
       18.9804    -9.02696e-16         3.85779     5.64664e-14    -4.76316e-07    -4.04737e-14               0               0               0         3.51869         2.55704
       19.9156    -1.42954e-15         5.23387    -1.91199e-13    -1.03174e-06     1.37046e-13    -6.39165e-08               0        4.58e-08         2.75165         1.99963
