TITLE     = "AircraftModel"
VARIABLES = "X",
            "Y",
            "Z",
            "CD",
            "CS",
            "CL",
            "CMD",
            "CMS",
            "CML",
            "RefArea",
            "RefLength"


ZONE
T           = "AeroCase:'AC_1'; Alt:10668; M:0.44; Re:7.98547e+06; AoS:0; AoA:3 Wing:'wing'"
I           = 70
DATAPACKING = POINT
ZONETYPE    = ORDERED
AUXDATA CS  = ""
        12.111        -13.3119         1.45207      0.00532525      0.00285258        0.174672      0.00638603     -0.00955951    -0.000371066        0.696365         1.61297
       12.1017        -12.8803         1.44441      0.00809716      0.00520115        0.323153      0.00185454      -0.0188213     0.000430519         0.71565         1.65764
       12.0925        -12.4486         1.43674       0.0077344      0.00614479        0.386174      0.00132059      -0.0234175     0.000463929        0.734936         1.70232
       12.0833        -12.0169         1.42908      0.00760542      0.00676139        0.428238     0.000964532       -0.026588     0.000546656        0.754204         1.74699
       12.0741        -11.5853         1.42142      0.00734451      0.00718232        0.457613     0.000759642      -0.0288577     0.000598837        0.773507         1.79166
       12.0648        -11.1536         1.41376      0.00709662      0.00748862        0.479192     0.000625671      -0.0305791     0.000637467        0.792793         1.83633
       12.0556         -10.722          1.4061      0.00689216      0.00771846        0.495539     0.000532011      -0.0319426     0.000667035        0.812079           1.881
       12.0464        -10.2903         1.39844      0.00674036      0.00789444        0.508169     0.000462743      -0.0330626     0.000690549        0.831364         1.92567
       12.0372        -9.85865         1.39078      0.00664172        0.008032        0.518029     0.000408973      -0.0340079     0.000709862        0.850638         1.97034
        12.028          -9.427         1.38312      0.00659354      0.00813877        0.525727     0.000365356      -0.0348197     0.000725284        0.869934         2.01501
       12.0188        -8.99534         1.37546      0.00659238      0.00822232         0.53166     0.000328436       -0.035526     0.000738343        0.889217         2.05968
       12.0095        -8.56368          1.3678      0.00663622      0.00828495        0.536078     0.000295771      -0.0361478     0.000749191        0.908503         2.10435
       12.0003        -8.13202         1.36014      0.00672517      0.00832866        0.539116     0.000265409      -0.0366992     0.000757762        0.927788         2.14902
       11.9911        -7.70036         1.35248      0.00686488      0.00835544        0.540807     0.000235514      -0.0371961     0.000764432        0.947074         2.19369
       11.9819        -7.26871         1.34482      0.00707019        0.008362        0.541062     0.000203864      -0.0376678     0.000769663        0.966359         2.23837
       11.9727        -6.83705         1.33716      0.00737765      0.00834846         0.53961     0.000166507      -0.0381738     0.000773658        0.985647         2.28304
       11.9634        -6.40539          1.3295      0.00796877      0.00830727        0.535851     0.000117635      -0.0388559     0.000769073         1.00493         2.32771
       11.9542        -5.97373         1.32184      0.00994032      0.00825488        0.528619     9.03974e-05      -0.0405434     0.000748407         1.02422         2.37238
        11.945        -5.54207         1.31418       0.0134098      0.00829831        0.521813     5.19619e-05      -0.0451188     0.000775552          1.0435         2.41705
       11.9358        -5.11041         1.30652       0.0158971      0.00827927        0.514495     0.000131443      -0.0482186     0.000837836         1.06279         2.46172
       11.9266        -4.67876         1.29886       0.0147117      0.00829516        0.518463     0.000352425      -0.0469995     0.000938457         1.08207         2.50639
       11.9174         -4.2471          1.2912      0.00950964      0.00844813        0.540368     0.000568285      -0.0424329     0.000956195         1.10136         2.55106
       11.9053        -3.82766          1.2838      0.00476432      0.00883081        0.578717     0.000696532      -0.0381962      0.00105261         1.05169         2.58227
       11.8905        -3.42045         1.27665    -0.000138088      0.00919265        0.617379     0.000511974      -0.0359153      0.00105722         1.05892         2.60002
       11.8758        -3.01324         1.26951    -0.000897449      0.00940365        0.633666      9.8642e-05      -0.0359567     0.000956404         1.06615         2.61777
        11.861        -2.60603         1.26237      0.00205273      0.00929433          0.6174    -0.000277317      -0.0376652     0.000946087         1.07338         2.63552
       11.8462        -2.19882         1.25523      0.00481515      0.00890048        0.582358      -0.0003045      -0.0390964     0.000912593         1.08061         2.65327
       11.8314        -1.79161         1.24808      0.00672886        0.008709        0.564252    -6.18032e-05      -0.0393071     0.000954261         1.08784         2.67102
       11.8166         -1.3844         1.24094      0.00678552      0.00853385        0.552355     -5.7835e-05      -0.0384381     0.000940237         1.09507         2.68877
       11.8018       -0.977184          1.2338      0.00601067      0.00829858        0.539183    -0.000101046      -0.0362456     0.000916576          1.1023         2.70652
       11.7918       -0.702189         1.22898      0.00453353      0.00805258        0.527768     1.75434e-05      -0.0333862     0.000870621        0.388207         2.71851
       11.7866       -0.559409         1.22647      0.00346995      0.00787241         0.51861    -1.02309e-05      -0.0301438     0.000810881        0.389096         2.72473
       11.7839        -0.48516         1.22517      0.00571452      0.00802708        0.510812     3.01067e-05      -0.0270104     0.000606804       0.0156037         2.72797
       11.7794       -0.361725           1.223      0.00470871       0.0078456        0.501873    -6.46764e-05      -0.0239867     0.000595798         0.65925         2.73335
       11.7707       -0.120575         1.21877      0.00654476      0.00780379        0.494111     4.08422e-05      -0.0214225     0.000444942        0.661785         2.74386
       11.7707        0.120564         1.21877      0.00651864     -0.00780169        0.494079     -4.1327e-05      -0.0214126    -0.000445097        0.661725         2.74386
       11.7794        0.361692           1.223      0.00466076     -0.00784115        0.501718     6.29152e-05      -0.0239366    -0.000595817        0.659189         2.73335
        11.784        0.486589         1.22519      0.00569113      -0.0080508        0.510637    -2.98003e-05       -0.026962    -0.000603566       0.0236399         2.72791
       11.7867        0.561365         1.22651      0.00317099     -0.00785648        0.518574     8.72841e-06      -0.0301283    -0.000818762        0.383929         2.72465
       11.7918        0.702253         1.22898      0.00450559     -0.00805038         0.52764    -1.79993e-05      -0.0333437    -0.000869447        0.383064         2.71851
       11.8018        0.976357         1.23378      0.00601482     -0.00829741        0.539065     0.000101906      -0.0362165    -0.000916852         1.10261         2.70656
       11.8165         1.38368         1.24093      0.00680557     -0.00853316        0.552276     5.81472e-05       -0.038425    -0.000939965         1.09538          2.6888
       11.8314           1.791         1.24807      0.00673586     -0.00870842        0.564185     6.18389e-05      -0.0393001    -0.000953861         1.08814         2.67105
       11.8461         2.19832         1.25522       0.0051349      -0.0089044         0.58187     0.000304413       -0.039066    -0.000912744         1.08091         2.65329
       11.8609         2.60564         1.26236       0.0020547     -0.00929326        0.617342     0.000277901      -0.0376635     -0.00094587         1.07368         2.63554
       11.8757         3.01296         1.26951    -0.000896005     -0.00940289        0.633643    -9.83167e-05      -0.0359555    -0.000956407         1.06644         2.61779
       11.8905         3.42029         1.27665    -0.000138595     -0.00919313        0.617373    -0.000512031       -0.035914      -0.0010572         1.05921         2.60003
       11.9053         3.82761          1.2838      0.00476412     -0.00883037        0.578708    -0.000696822      -0.0381954     -0.00105268         1.05198         2.58228
       11.9174          4.2471          1.2912      0.00951011     -0.00844798        0.540356     -0.00056825      -0.0424322    -0.000956165         1.10136         2.55106
       11.9266         4.67876         1.29886       0.0147118     -0.00829503        0.518454    -0.000352398      -0.0469989    -0.000938441         1.08207         2.50639
       11.9358         5.11041         1.30652       0.0158972     -0.00827916        0.514487    -0.000131419      -0.0482181    -0.000837826         1.06279         2.46172
        11.945         5.54207         1.31418       0.0134099     -0.00829822        0.521807    -5.19411e-05      -0.0451185    -0.000775544          1.0435         2.41705
       11.9542         5.97373         1.32184       0.0099405     -0.00825481        0.528614    -9.03806e-05      -0.0405431      -0.0007484         1.02422         2.37238
       11.9634         6.40539          1.3295      0.00796895     -0.00830721        0.535847    -0.000117622      -0.0388558    -0.000769067         1.00493         2.32771
       11.9727         6.83705         1.33716      0.00737782     -0.00834841        0.539606    -0.000166496      -0.0381736    -0.000773653        0.985647         2.28304
       11.9819         7.26871         1.34482      0.00707034     -0.00836195        0.541059    -0.000203854      -0.0376677    -0.000769658        0.966359         2.23837
       11.9911         7.70036         1.35248      0.00686502     -0.00835541        0.540804    -0.000235506       -0.037196    -0.000764428        0.947074         2.19369
       12.0003         8.13202         1.36014      0.00672529     -0.00832863        0.539114    -0.000265402      -0.0366991    -0.000757759        0.927788         2.14902
       12.0095         8.56368          1.3678      0.00663634     -0.00828492        0.536076    -0.000295764      -0.0361478    -0.000749188        0.908503         2.10435
       12.0188         8.99534         1.37546      0.00659248     -0.00822229        0.531658    -0.000328431      -0.0355259     -0.00073834        0.889217         2.05968
        12.028           9.427         1.38312      0.00659363     -0.00813875        0.525725    -0.000365351      -0.0348197    -0.000725281        0.869934         2.01501
       12.0372         9.85865         1.39078      0.00664179     -0.00803198        0.518027    -0.000408969      -0.0340079     -0.00070986        0.850638         1.97034
       12.0464         10.2903         1.39844      0.00674043     -0.00789443        0.508168    -0.000462739      -0.0330626    -0.000690548        0.831364         1.92567
       12.0556          10.722          1.4061      0.00689222     -0.00771844        0.495538    -0.000532008      -0.0319426    -0.000667034        0.812079           1.881
       12.0648         11.1536         1.41376      0.00709667     -0.00748861        0.479191    -0.000625668      -0.0305791    -0.000637466        0.792793         1.83633
       12.0741         11.5853         1.42142      0.00734455     -0.00718231        0.457612    -0.000759639      -0.0288577    -0.000598836        0.773507         1.79166
       12.0833         12.0169         1.42908      0.00760546     -0.00676138        0.428237    -0.000964529       -0.026588    -0.000546655        0.754204         1.74699
       12.0925         12.4486         1.43674      0.00773443     -0.00614479        0.386174     -0.00132058      -0.0234175    -0.000463929        0.734936         1.70232
       12.1017         12.8803         1.44441      0.00809717     -0.00520114        0.323153     -0.00185453      -0.0188213    -0.000430518         0.71565         1.65764
        12.111         13.3119         1.45207      0.00532525     -0.00285257        0.174672     -0.00638602     -0.00955951     0.000371065        0.696365         1.61297


ZONE
T           = "AeroCase:'AC_1'; Alt:10668; M:0.44; Re:7.98547e+06; AoS:0; AoA:3 Wing:'htp'"
I           = 12
DATAPACKING = POINT
ZONETYPE    = ORDERED
AUXDATA CS  = ""
       25.5197        -3.07092          4.7746      0.00298318      0.00144028        0.093888       0.0119794      0.00126192    -0.000536813         1.41899         1.21355
       25.3968        -1.90181          4.7542       0.0042568      0.00210179        0.137879       0.0016127     0.000170344    -3.35967e-05          1.6924         1.44738
       25.2739       -0.732701         4.73379      0.00429404       0.0020632        0.134307     0.000544876     5.71163e-05    -4.75985e-05          1.9658          1.6812
       25.2103       -0.126735         4.72321      0.00485569      0.00205607        0.128564      1.4409e-07     7.59723e-09     -6.4441e-07       0.0771968         1.80239
       25.2055      -0.0814608         4.72242      0.00537586      0.00210404        0.127996     1.86973e-07    -3.93534e-09    -1.98613e-06       0.0864634         1.81145
          25.2      -0.0287993          4.7215       0.0118398      0.00279529        0.127822     5.74886e-06    -1.28294e-07    -6.18854e-05        0.104959         1.82198
       25.1998        0.027666         4.72148       0.0124925     -0.00287339        0.128397    -8.54879e-06     1.50487e-07     6.33122e-05        0.100841         1.82221
       25.2054       0.0808212         4.72241      0.00549381     -0.00211827        0.128102    -5.42376e-07     2.76245e-08     2.49919e-06       0.0923656         1.81157
       25.2102         0.12624          4.7232      0.00490793      -0.0020584        0.128588    -2.10177e-07     1.50524e-08     6.04749e-07        0.071856         1.80249
       25.2738        0.731054         4.73376      0.00430105     -0.00206252        0.134185    -0.000549194     5.75494e-05     5.00294e-05          1.9673         1.68153
       25.3967         1.90082         4.75418      0.00425581      -0.0021007        0.137799     -0.00160707     0.000169737      3.3461e-05         1.69358         1.44757
       25.5197         3.07059          4.7746      0.00298309     -0.00144014       0.0938736      -0.0119826      0.00126227     0.000536976         1.41987         1.21362


ZONE
T           = "AeroCase:'AC_1'; Alt:10668; M:0.44; Re:7.98547e+06; AoS:0; AoA:3 Wing:'vtp'"
I           = 6
DATAPACKING = POINT
ZONETYPE    = ORDERED
AUXDATA CS  = ""
       23.1649    -2.95058e-18        0.913707     1.96768e-11      4.9888e-06    -1.19905e-11    -5.68433e-17               0     3.41725e-17       0.0542659         3.52067
       23.1952    -2.48043e-17        0.970788    -2.86549e-10     1.60902e-05     1.74507e-10    -3.05925e-08               0       1.838e-08          0.3459         3.50284
       23.2688    -7.78073e-17         1.10923    -4.76973e-10     2.42195e-05     2.90517e-10     -4.0991e-09               0     2.46311e-09        0.616264         3.45957
       23.6899    -3.81008e-16         1.90117      4.1434e-10     1.00833e-05    -2.52356e-10       8.762e-08               0    -5.26474e-08          4.5154         3.21209
       24.4374    -9.19209e-16         3.30692     5.42975e-09     0.000119635    -3.30702e-09    -9.56785e-06               0     5.74894e-06         3.89786         2.77279
       25.1848    -1.45741e-15         4.71267     2.85278e-08     8.99105e-05     -1.7375e-08     1.44934e-05               0    -8.70848e-06         3.28031          2.3335
