TITLE     = "AircraftModel"
VARIABLES = "X",
            "Y",
            "Z"


ZONE
T           = "wing_segment_from_wing_section_1_element_1_to_wing_section_2_element_1_symm; Col:1; Row:1; CS:0; Side:Lower"
I           = 28
J           = 26
DATAPACKING = BLOCK
ZONETYPE    = ORDERED
VARLOCATION = (NODAL, NODAL, NODAL)
AUXDATA CS  = ""
# X
       11.7357         11.7359         11.7363         11.7366          11.737         11.7374         11.7377          11.738         11.7383         11.7386  
       11.7389         11.7392         11.7394         11.7398         11.7401         11.7404         11.7407          11.741         11.7414         11.7417  
        11.742         11.7424         11.7428         11.7431         11.7435         11.7438         11.7442         11.7445         11.5723         11.5725  
        11.573         11.5736         11.5742         11.5749         11.5757         11.5766         11.5775         11.5785         11.5796         11.5808  
        11.582         11.5834         11.5848         11.5863         11.5879         11.5896         11.5913         11.5931         11.5951          11.597  
       11.5991         11.6012         11.6034         11.6057          11.608         11.6103         11.4088         11.4091         11.4097         11.4105  
       11.4114         11.4125         11.4138         11.4152         11.4167         11.4185         11.4204         11.4224         11.4246          11.427  
       11.4295         11.4322         11.4351         11.4381         11.4413         11.4446         11.4481         11.4517         11.4555         11.4594  
       11.4634         11.4675         11.4718         11.4762         11.2454         11.2458         11.2464         11.2474         11.2486         11.2501  
       11.2518         11.2538          11.256         11.2584         11.2611          11.264         11.2672         11.2706         11.2743         11.2782  
       11.2823         11.2867         11.2912          11.296         11.3011         11.3064         11.3118         11.3175         11.3234         11.3294  
       11.3356          11.342          11.082         11.0824         11.0832         11.0843         11.0859         11.0877         11.0899         11.0924  
       11.0952         11.0983         11.1018         11.1056         11.1097         11.1142          11.119         11.1241         11.1295         11.1352  
       11.1412         11.1475         11.1541          11.161         11.1682         11.1756         11.1833         11.1912         11.1994         11.2078  
       10.9186          10.919         10.9199         10.9213         10.9231         10.9253          10.928          10.931         10.9344         10.9383  
       10.9426         10.9472         10.9523         10.9578         10.9637           10.97         10.9767         10.9837         10.9912          10.999  
       11.0071         11.0157         11.0245         11.0337         11.0433         11.0531         11.0632         11.0737         10.7551         10.7556  
       10.7566         10.7582         10.7603         10.7629          10.766         10.7696         10.7736         10.7782         10.7833         10.7889  
       10.7949         10.8014         10.8084         10.8159         10.8239         10.8323         10.8411         10.8504         10.8602         10.8703  
       10.8809         10.8919         10.9032          10.915         10.9271         10.9395         10.5917         10.5922         10.5934         10.5951  
       10.5975         10.6005         10.6041         10.6082         10.6129         10.6182          10.624         10.6305         10.6375          10.645  
       10.6532         10.6619         10.6711         10.6808         10.6911         10.7019         10.7132          10.725         10.7373           10.75  
       10.7632         10.7768         10.7909         10.8053         10.4283         10.4288         10.4301         10.4321         10.4347         10.4381  
       10.4421         10.4468         10.4521         10.4581         10.4648         10.4721           10.48         10.4886         10.4979         10.5078  
       10.5183         10.5294         10.5411         10.5533         10.5662         10.5796         10.5936         10.6081         10.6231         10.6387  
       10.6547         10.6712         10.2648         10.2654         10.2668          10.269          10.272         10.2757         10.2802         10.2854  
       10.2913          10.298         10.3055         10.3137         10.3226         10.3323         10.3426         10.3537         10.3655         10.3779  
        10.391         10.4048         10.4192         10.4343           10.45         10.4662         10.4831         10.5005         10.5185          10.537  
       10.1014          10.102         10.1035         10.1059         10.1092         10.1133         10.1182          10.124         10.1306          10.138  
       10.1462         10.1553         10.1652         10.1759         10.1874         10.1996         10.2127         10.2265          10.241         10.2562  
       10.2722         10.2889         10.3063         10.3244         10.3431         10.3624         10.3823         10.4028         9.93799         9.93861  
       9.94026         9.94285          9.9464         9.95088         9.95627         9.96257         9.96979         9.97793         9.98699         9.99693  
       10.0078         10.0195         10.0321         10.0455         10.0599          10.075         10.0909         10.1077         10.1253         10.1436  
       10.1627         10.1825          10.203         10.2242         10.2461         10.2686         9.77456         9.77522         9.77698         9.77978  
       9.78362         9.78847         9.79432         9.80117         9.80902         9.81787         9.82772         9.83854         9.85033         9.86309  
       9.87682         9.89147         9.90705         9.92354         9.94091         9.95916         9.97828         9.99825          10.019         10.0406  
        10.063         10.0861         10.1099         10.1345         9.61113         9.61183         9.61371         9.61671         9.62083         9.62606  
       9.63238         9.63977         9.64825         9.65781         9.66846         9.68016         9.69291         9.70671         9.72155         9.73739  
       9.75424         9.77208         9.79087         9.81061          9.8313          9.8529         9.87539         9.89874         9.92294         9.94795  
       9.97375         10.0003          9.4477         9.44844         9.45044         9.45364         9.45805         9.46365         9.47043         9.47836  
       9.48748         9.49776          9.5092         9.52177         9.53548         9.55032         9.56627         9.58332         9.60144         9.62062  
       9.64083         9.66207         9.68432         9.70756         9.73175         9.75687          9.7829          9.8098         9.83757         9.86614  
       9.28428         9.28505         9.28716         9.29057         9.29527         9.30125         9.30848         9.31696         9.32671          9.3377  
       9.34993         9.36339         9.37805         9.39393           9.411         9.42924         9.44863         9.46916          9.4908         9.51353  
       9.53734         9.56221          9.5881           9.615         9.64286         9.67166         9.70138         9.73198         9.12085         9.12165  
       9.12389          9.1275         9.13249         9.13884         9.14654         9.15556         9.16594         9.17764         9.19067           9.205  
       9.22063         9.23754         9.25573         9.27516         9.29583          9.3177         9.34076         9.36498         9.39036         9.41687  
       9.44446         9.47312         9.50282         9.53351         9.56519         9.59781         8.95742         8.95826         8.96061         8.96443  
       8.96971         8.97643         8.98459         8.99416         9.00516         9.01758         9.03141         9.04662          9.0632         9.08115  
       9.10046         9.12109         9.14302         9.16624         9.19072         9.21644         9.24338         9.27152         9.30082         9.33125  
       9.36277         9.39537         9.42901         9.46364         8.79399         8.79487         8.79734         8.80136         8.80693         8.81403  
       8.82264         8.83276         8.84439         8.85752         8.87214         8.88823         8.90577         8.92477         8.94519         8.96701  
       8.99022         9.01479         9.04068          9.0679         9.09641         9.12618         9.15717         9.18937         9.22273         9.25723  
       9.29282         9.32947         8.63057         8.63148         8.63407         8.63829         8.64415         8.65162         8.66069         8.67136  
       8.68362         8.69746         8.71288         8.72985         8.74835         8.76838         8.78992         8.81293         8.83741         8.86333  
       8.89065         8.91935         8.94943         8.98083         9.01353          9.0475         9.08269         9.11908         9.15663          9.1953  
       8.46714         8.46809         8.47079         8.47522         8.48136         8.48921         8.49875         8.50996         8.52285         8.53741  
       8.55362         8.57146         8.59092         8.61199         8.63465         8.65886         8.68461         8.71187         8.74061         8.77081  
       8.80245         8.83548         8.86989         8.90562         8.94265         8.98094         9.02045         9.06113         8.30371         8.30469  
       8.30752         8.31215         8.31858         8.32681          8.3368         8.34856         8.36208         8.37735         8.39436         8.41308  
       8.43349          8.4556         8.47937         8.50478          8.5318         8.56041         8.59057         8.62226         8.65547         8.69014  
       8.72624         8.76375         8.80261         8.84279         8.88426         8.92696         8.14028          8.1413         8.14425         8.14908  
        8.1558          8.1644         8.17485         8.18716         8.20131         8.21729         8.23509         8.25469         8.27607         8.29921  
        8.3241          8.3507         8.37899         8.40895         8.44054         8.47372         8.50849         8.54479          8.5826         8.62187  
       8.66257         8.70465         8.74807          8.7928         7.97686         7.97791         7.98097         7.98601         7.99302         8.00199  
       8.01291         8.02576         8.04054         8.05723         8.07583         8.09631         8.11864         8.14282         8.16883         8.19663  
       8.22619         8.25749          8.2905         8.32518         8.36151         8.39945         8.43896            8.48         8.52253          8.5665  
       8.61189         8.65863         7.81343         7.81452          7.8177         7.82294         7.83024         7.83958         7.85096         7.86435  
       7.87976         7.89717         7.91657         7.93792         7.96122         7.98644         8.01356         8.04255         8.07338         8.10603  
       8.14046         8.17663         8.21453          8.2541         8.29531         8.33812         8.38248         8.42836          8.4757         8.52446  
          7.65         7.65113         7.65442         7.65987         7.66746         7.67718         7.68901         7.70295         7.71899         7.73711  
        7.7573         7.77953         7.80379         7.83005         7.85829         7.88847         7.92058         7.95457         7.99042         8.02809  
       8.06755         8.10876         8.15167         8.19625         8.24244         8.29021         8.33951         8.39029  
# Y
           -18             -18             -18             -18             -18             -18             -18             -18             -18             -18  
           -18             -18             -18             -18             -18             -18             -18             -18             -18             -18  
           -18             -18             -18             -18             -18             -18             -18             -18        -17.4264        -17.4264  
      -17.4264        -17.4264        -17.4264        -17.4264        -17.4264        -17.4264        -17.4264        -17.4264        -17.4264        -17.4264  
      -17.4264        -17.4264        -17.4264        -17.4264        -17.4264        -17.4264        -17.4264        -17.4264        -17.4264        -17.4264  
      -17.4264        -17.4264        -17.4264        -17.4264        -17.4264        -17.4264        -16.8528        -16.8528        -16.8528        -16.8528  
      -16.8528        -16.8528        -16.8528        -16.8528        -16.8528        -16.8528        -16.8528        -16.8528        -16.8528        -16.8528  
      -16.8528        -16.8528        -16.8528        -16.8528        -16.8528        -16.8528        -16.8528        -16.8528        -16.8528        -16.8528  
      -16.8528        -16.8528        -16.8528        -16.8528        -16.2792        -16.2792        -16.2792        -16.2792        -16.2792        -16.2792  
      -16.2792        -16.2792        -16.2792        -16.2792        -16.2792        -16.2792        -16.2792        -16.2792        -16.2792        -16.2792  
      -16.2792        -16.2792        -16.2792        -16.2792        -16.2792        -16.2792        -16.2792        -16.2792        -16.2792        -16.2792  
      -16.2792        -16.2792        -15.7057        -15.7057        -15.7057        -15.7057        -15.7057        -15.7057        -15.7057        -15.7057  
      -15.7057        -15.7057        -15.7057        -15.7057        -15.7057        -15.7057        -15.7057        -15.7057        -15.7057        -15.7057  
      -15.7057        -15.7057        -15.7057        -15.7057        -15.7057        -15.7057        -15.7057        -15.7057        -15.7057        -15.7057  
      -15.1321        -15.1321        -15.1321        -15.1321        -15.1321        -15.1321        -15.1321        -15.1321        -15.1321        -15.1321  
      -15.1321        -15.1321        -15.1321        -15.1321        -15.1321        -15.1321        -15.1321        -15.1321        -15.1321        -15.1321  
      -15.1321        -15.1321        -15.1321        -15.1321        -15.1321        -15.1321        -15.1321        -15.1321        -14.5585        -14.5585  
      -14.5585        -14.5585        -14.5585        -14.5585        -14.5585        -14.5585        -14.5585        -14.5585        -14.5585        -14.5585  
      -14.5585        -14.5585        -14.5585        -14.5585        -14.5585        -14.5585        -14.5585        -14.5585        -14.5585        -14.5585  
      -14.5585        -14.5585        -14.5585        -14.5585        -14.5585        -14.5585        -13.9849        -13.9849        -13.9849        -13.9849  
      -13.9849        -13.9849        -13.9849        -13.9849        -13.9849        -13.9849        -13.9849        -13.9849        -13.9849        -13.9849  
      -13.9849        -13.9849        -13.9849        -13.9849        -13.9849        -13.9849        -13.9849        -13.9849        -13.9849        -13.9849  
      -13.9849        -13.9849        -13.9849        -13.9849        -13.4113        -13.4113        -13.4113        -13.4113        -13.4113        -13.4113  
      -13.4113        -13.4113        -13.4113        -13.4113        -13.4113        -13.4113        -13.4113        -13.4113        -13.4113        -13.4113  
      -13.4113        -13.4113        -13.4113        -13.4113        -13.4113        -13.4113        -13.4113        -13.4113        -13.4113        -13.4113  
      -13.4113        -13.4113        -12.8377        -12.8377        -12.8377        -12.8377        -12.8377        -12.8377        -12.8377        -12.8377  
      -12.8377        -12.8377        -12.8377        -12.8377        -12.8377        -12.8377        -12.8377        -12.8377        -12.8377        -12.8377  
      -12.8377        -12.8377        -12.8377        -12.8377        -12.8377        -12.8377        -12.8377        -12.8377        -12.8377        -12.8377  
      -12.2641        -12.2641        -12.2641        -12.2641        -12.2641        -12.2641        -12.2641        -12.2641        -12.2641        -12.2641  
      -12.2641        -12.2641        -12.2641        -12.2641        -12.2641        -12.2641        -12.2641        -12.2641        -12.2641        -12.2641  
      -12.2641        -12.2641        -12.2641        -12.2641        -12.2641        -12.2641        -12.2641        -12.2641        -11.6906        -11.6906  
      -11.6906        -11.6906        -11.6906        -11.6906        -11.6906        -11.6906        -11.6906        -11.6906        -11.6906        -11.6906  
      -11.6906        -11.6906        -11.6906        -11.6906        -11.6906        -11.6906        -11.6906        -11.6906        -11.6906        -11.6906  
      -11.6906        -11.6906        -11.6906        -11.6906        -11.6906        -11.6906         -11.117         -11.117         -11.117         -11.117  
       -11.117         -11.117         -11.117         -11.117         -11.117         -11.117         -11.117         -11.117         -11.117         -11.117  
       -11.117         -11.117         -11.117         -11.117         -11.117         -11.117         -11.117         -11.117         -11.117         -11.117  
       -11.117         -11.117         -11.117         -11.117        -10.5434        -10.5434        -10.5434        -10.5434        -10.5434        -10.5434  
      -10.5434        -10.5434        -10.5434        -10.5434        -10.5434        -10.5434        -10.5434        -10.5434        -10.5434        -10.5434  
      -10.5434        -10.5434        -10.5434        -10.5434        -10.5434        -10.5434        -10.5434        -10.5434        -10.5434        -10.5434  
      -10.5434        -10.5434        -9.96979        -9.96979        -9.96979        -9.96979        -9.96979        -9.96979        -9.96979        -9.96979  
      -9.96979        -9.96979        -9.96979        -9.96979        -9.96979        -9.96979        -9.96979        -9.96979        -9.96979        -9.96979  
      -9.96979        -9.96979        -9.96979        -9.96979        -9.96979        -9.96979        -9.96979        -9.96979        -9.96979        -9.96979  
      -9.39621        -9.39621        -9.39621        -9.39621        -9.39621        -9.39621        -9.39621        -9.39621        -9.39621        -9.39621  
      -9.39621        -9.39621        -9.39621        -9.39621        -9.39621        -9.39621        -9.39621        -9.39621        -9.39621        -9.39621  
      -9.39621        -9.39621        -9.39621        -9.39621        -9.39621        -9.39621        -9.39621        -9.39621        -8.82262        -8.82262  
      -8.82262        -8.82262        -8.82262        -8.82262        -8.82262        -8.82262        -8.82262        -8.82262        -8.82262        -8.82262  
      -8.82262        -8.82262        -8.82262        -8.82262        -8.82262        -8.82262        -8.82262        -8.82262        -8.82262        -8.82262  
      -8.82262        -8.82262        -8.82262        -8.82262        -8.82262        -8.82262        -8.24903        -8.24903        -8.24903        -8.24903  
      -8.24903        -8.24903        -8.24903        -8.24903        -8.24903        -8.24903        -8.24903        -8.24903        -8.24903        -8.24903  
      -8.24903        -8.24903        -8.24903        -8.24903        -8.24903        -8.24903        -8.24903        -8.24903        -8.24903        -8.24903  
      -8.24903        -8.24903        -8.24903        -8.24903        -7.67545        -7.67545        -7.67545        -7.67545        -7.67545        -7.67545  
      -7.67545        -7.67545        -7.67545        -7.67545        -7.67545        -7.67545        -7.67545        -7.67545        -7.67545        -7.67545  
      -7.67545        -7.67545        -7.67545        -7.67545        -7.67545        -7.67545        -7.67545        -7.67545        -7.67545        -7.67545  
      -7.67545        -7.67545        -7.10186        -7.10186        -7.10186        -7.10186        -7.10186        -7.10186        -7.10186        -7.10186  
      -7.10186        -7.10186        -7.10186        -7.10186        -7.10186        -7.10186        -7.10186        -7.10186        -7.10186        -7.10186  
      -7.10186        -7.10186        -7.10186        -7.10186        -7.10186        -7.10186        -7.10186        -7.10186        -7.10186        -7.10186  
      -6.52827        -6.52827        -6.52827        -6.52827        -6.52827        -6.52827        -6.52827        -6.52827        -6.52827        -6.52827  
      -6.52827        -6.52827        -6.52827        -6.52827        -6.52827        -6.52827        -6.52827        -6.52827        -6.52827        -6.52827  
      -6.52827        -6.52827        -6.52827        -6.52827        -6.52827        -6.52827        -6.52827        -6.52827        -5.95469        -5.95469  
      -5.95469        -5.95469        -5.95469        -5.95469        -5.95469        -5.95469        -5.95469        -5.95469        -5.95469        -5.95469  
      -5.95469        -5.95469        -5.95469        -5.95469        -5.95469        -5.95469        -5.95469        -5.95469        -5.95469        -5.95469  
      -5.95469        -5.95469        -5.95469        -5.95469        -5.95469        -5.95469         -5.3811         -5.3811         -5.3811         -5.3811  
       -5.3811         -5.3811         -5.3811         -5.3811         -5.3811         -5.3811         -5.3811         -5.3811         -5.3811         -5.3811  
       -5.3811         -5.3811         -5.3811         -5.3811         -5.3811         -5.3811         -5.3811         -5.3811         -5.3811         -5.3811  
       -5.3811         -5.3811         -5.3811         -5.3811        -4.80752        -4.80752        -4.80752        -4.80752        -4.80752        -4.80752  
      -4.80752        -4.80752        -4.80752        -4.80752        -4.80752        -4.80752        -4.80752        -4.80752        -4.80752        -4.80752  
      -4.80752        -4.80752        -4.80752        -4.80752        -4.80752        -4.80752        -4.80752        -4.80752        -4.80752        -4.80752  
      -4.80752        -4.80752        -4.23393        -4.23393        -4.23393        -4.23393        -4.23393        -4.23393        -4.23393        -4.23393  
      -4.23393        -4.23393        -4.23393        -4.23393        -4.23393        -4.23393        -4.23393        -4.23393        -4.23393        -4.23393  
      -4.23393        -4.23393        -4.23393        -4.23393        -4.23393        -4.23393        -4.23393        -4.23393        -4.23393        -4.23393  
      -3.66034        -3.66034        -3.66034        -3.66034        -3.66034        -3.66034        -3.66034        -3.66034        -3.66034        -3.66034  
      -3.66034        -3.66034        -3.66034        -3.66034        -3.66034        -3.66034        -3.66034        -3.66034        -3.66034        -3.66034  
      -3.66034        -3.66034        -3.66034        -3.66034        -3.66034        -3.66034        -3.66034        -3.66034  
# Z
             2         1.99735         1.99361         1.98979         1.98601         1.98238          1.9792         1.97656         1.97396         1.97152  
       1.96908         1.96693         1.96496         1.96284          1.9606         1.95861         1.95658         1.95453         1.95276         1.95107  
       1.94906         1.94706         1.94516         1.94329         1.94157         1.94005         1.93859         1.93751               2         1.99723  
        1.9933          1.9893         1.98535         1.98154         1.97822         1.97546         1.97274         1.97019         1.96764         1.96539  
       1.96333         1.96112         1.95878          1.9567         1.95459         1.95246         1.95061         1.94885         1.94676         1.94468  
        1.9427         1.94076         1.93897         1.93739         1.93588         1.93476               2          1.9971           1.993         1.98882  
       1.98469         1.98071         1.97724         1.97435         1.97151         1.96885         1.96619         1.96385         1.96171          1.9594  
       1.95696          1.9548          1.9526         1.95038         1.94846         1.94663         1.94445         1.94229         1.94023         1.93822  
       1.93636         1.93473         1.93316           1.932               2         1.99697         1.99269         1.98833         1.98402         1.97988  
       1.97625         1.97325         1.97029         1.96752         1.96475         1.96231         1.96008         1.95768         1.95515          1.9529  
       1.95061          1.9483         1.94631         1.94441         1.94215         1.93991         1.93777         1.93568         1.93375         1.93206  
       1.93044         1.92925               2         1.99685         1.99239         1.98785         1.98336         1.97904         1.97527         1.97215  
       1.96907         1.96619         1.96331         1.96077         1.95845         1.95596         1.95333         1.95099         1.94862         1.94623  
       1.94416         1.94219         1.93985         1.93752         1.93531         1.93314         1.93115          1.9294         1.92772          1.9265  
             2         1.99672         1.99209         1.98737          1.9827         1.97821         1.97429         1.97104         1.96785         1.96485  
       1.96186         1.95923         1.95683         1.95424         1.95151         1.94909         1.94663         1.94415         1.94201         1.93997  
       1.93755         1.93514         1.93285          1.9306         1.92854         1.92674         1.92501         1.92375               2          1.9966  
       1.99178         1.98688         1.98203         1.97738         1.97331         1.96994         1.96662         1.96352         1.96042         1.95769  
        1.9552         1.95253         1.94969         1.94719         1.94464         1.94207         1.93986         1.93775         1.93524         1.93275  
       1.93038         1.92807         1.92594         1.92407         1.92229         1.92099               2         1.99647         1.99148          1.9864  
       1.98137         1.97654         1.97233         1.96884          1.9654         1.96218         1.95898         1.95615         1.95358         1.95081  
       1.94788         1.94528         1.94265            1.94         1.93771         1.93553         1.93294         1.93037         1.92792         1.92553  
       1.92333         1.92141         1.91957         1.91824               2         1.99634         1.99117         1.98591         1.98071         1.97571  
       1.97135         1.96773         1.96418         1.96085         1.95753         1.95461         1.95195         1.94909         1.94606         1.94338  
       1.94066         1.93792         1.93556         1.93331         1.93064         1.92798         1.92546         1.92299         1.92073         1.91875  
       1.91685         1.91549               2         1.99622         1.99087         1.98543         1.98004         1.97488         1.97036         1.96663  
       1.96296         1.95952         1.95609         1.95307         1.95032         1.94737         1.94424         1.94148         1.93867         1.93584  
       1.93341         1.93109         1.92833          1.9256         1.92299         1.92045         1.91812         1.91608         1.91414         1.91273  
             2         1.99609         1.99057         1.98494         1.97938         1.97404         1.96938         1.96553         1.96173         1.95818  
       1.95464         1.95153          1.9487         1.94565         1.94242         1.93958         1.93668         1.93377         1.93126         1.92887  
       1.92603         1.92321         1.92053         1.91791         1.91551         1.91342         1.91142         1.90998               2         1.99597  
       1.99026         1.98446         1.97872         1.97321          1.9684         1.96442         1.96051         1.95685          1.9532         1.94999  
       1.94707         1.94393         1.94061         1.93767         1.93469         1.93169         1.92911         1.92665         1.92373         1.92083  
       1.91807         1.91538         1.91291         1.91076          1.9087         1.90723               2         1.99584         1.98996         1.98397  
       1.97806         1.97237         1.96742         1.96332         1.95929         1.95552         1.95176         1.94845         1.94545         1.94221  
       1.93879         1.93577          1.9327         1.92961         1.92696         1.92444         1.92143         1.91844         1.91561         1.91284  
        1.9103          1.9081         1.90598         1.90447               2         1.99571         1.98965         1.98349         1.97739         1.97154  
       1.96644         1.96221         1.95807         1.95418         1.95031         1.94691         1.94382         1.94049         1.93697         1.93387  