TITLE     = "AircraftModel"
VARIABLES = "X",
            "Y",
            "Z"


ZONE
T           = "wing_segment_from_wing_section_1_element_1_to_wing_section_2_element_1_symm; Col:1; Row:1; CS:0; Side:Lower"
I           = 22
J           = 23
DATAPACKING = BLOCK
ZONETYPE    = ORDERED
VARLOCATION = (NODAL, NODAL, NODAL)
AUXDATA CS  = ""
# X
       11.7179         11.7187         11.7209         11.7247         11.7299         11.7366         11.7448         11.7545         11.7656         11.7782  
       11.7921         11.8076         11.8244         11.8426         11.8622         11.8832         11.9055         11.9291          11.954         11.9802  
       12.0076         12.0362         11.6975         11.6983         11.7006         11.7045         11.7099         11.7168         11.7252         11.7351  
       11.7465         11.7595         11.7738         11.7897          11.807         11.8257         11.8459         11.8674         11.8903         11.9146  
       11.9402         11.9671         11.9953         12.0248         11.6771         11.6779         11.6803         11.6843         11.6898         11.6969  
       11.7055         11.7158         11.7275         11.7408         11.7555         11.7718         11.7896         11.8089         11.8296         11.8517  
       11.8752         11.9002         11.9265         11.9541         11.9831         12.0133         11.6567         11.6576           11.66         11.6641  
       11.6698          11.677         11.6859         11.6964         11.7084         11.7221         11.7372          11.754         11.7722          11.792  
       11.8132         11.8359         11.8601         11.8857         11.9127         11.9411         11.9708         12.0019         11.6364         11.6372  
       11.6397         11.6439         11.6497         11.6572         11.6663          11.677         11.6894         11.7034         11.7189         11.7361  
       11.7548         11.7751         11.7969         11.8202          11.845         11.8713          11.899         11.9281         11.9586         11.9904  
        11.616         11.6168         11.6194         11.6237         11.6297         11.6373         11.6467         11.6577         11.6704         11.6847  
       11.7006         11.7182         11.7374         11.7582         11.7805         11.8044         11.8299         11.8568         11.8852          11.915  
       11.9463          11.979         11.5956         11.5965         11.5991         11.6035         11.6096         11.6175          11.627         11.6383  
       11.6513          11.666         11.6823         11.7004           11.72         11.7413         11.7642         11.7887         11.8148         11.8423  
       11.8714          11.902         11.9341         11.9675         11.5752         11.5761         11.5788         11.5833         11.5896         11.5976  
       11.6074          11.619         11.6323         11.6473          11.664         11.6825         11.7026         11.7244         11.7479          11.773  
       11.7996         11.8279         11.8577          11.889         11.9218         11.9561         11.5548         11.5557         11.5585         11.5631  
       11.5695         11.5777         11.5878         11.5996         11.6132         11.6286         11.6457         11.6646         11.6852         11.7075  
       11.7315         11.7572         11.7845         11.8134         11.8439          11.876         11.9096         11.9447         11.5344         11.5354  
       11.5382         11.5429         11.5495         11.5579         11.5681         11.5802         11.5942         11.6099         11.6274         11.6468  
       11.6678         11.6907         11.7152         11.7415         11.7694          11.799         11.8302          11.863         11.8973         11.9332  
        11.514          11.515         11.5179         11.5227         11.5294          11.538         11.5485         11.5609         11.5751         11.5912  
       11.6091         11.6289         11.6504         11.6738         11.6989         11.7257         11.7543         11.7845         11.8164         11.8499  
       11.8851         11.9218         11.4936         11.4946         11.4976         11.5025         11.5094         11.5181         11.5289         11.5415  
       11.5561         11.5725         11.5908          11.611          11.633         11.6569         11.6825           11.71         11.7392         11.7701  
       11.8027         11.8369         11.8728         11.9103         11.4733         11.4743         11.4773         11.4823         11.4893         11.4983  
       11.5092         11.5222          11.537         11.5538         11.5725         11.5931         11.6156           11.64         11.6662         11.6942  
        11.724         11.7556         11.7889         11.8239         11.8606         11.8989         11.4529         11.4539          11.457         11.4621  
       11.4693         11.4784         11.4896         11.5028          11.518         11.5351         11.5542         11.5753         11.5983         11.6231  
       11.6499         11.6785         11.7089         11.7411         11.7751         11.8109         11.8483         11.8874         11.4325         11.4335  
       11.4367         11.4419         11.4492         11.4586           11.47         11.4834         11.4989         11.5164         11.5359         11.5574  
       11.5809         11.6062         11.6335         11.6627         11.6938         11.7267         11.7614         11.7979         11.8361          11.876  
       11.4121         11.4132         11.4164         11.4217         11.4292         11.4387         11.4503         11.4641         11.4799         11.4977  
       11.5176         11.5395         11.5635         11.5894         11.6172          11.647         11.6787         11.7122         11.7476         11.7848  
       11.8238         11.8645         11.3917         11.3928         11.3961         11.4015         11.4091         11.4188         11.4307         11.4447  
       11.4608          11.479         11.4993         11.5217         11.5461         11.5725         11.6009         11.6312         11.6636         11.6978  
       11.7339         11.7718         11.8116         11.8531         11.3713         11.3724         11.3758         11.3813         11.3891          11.399  
       11.4111         11.4254         11.4418         11.4603          11.481         11.5038         11.5287         11.5556         11.5845         11.6155  
       11.6484         11.6833         11.7201         11.7588         11.7993         11.8416         11.3509         11.3521         11.3555         11.3611  
        11.369         11.3791         11.3915          11.406         11.4227         11.4416         11.4627         11.4859         11.5113         11.5387  
       11.5682         11.5998         11.6333         11.6689         11.7064         11.7458         11.7871         11.8302         11.3306         11.3317  
       11.3352         11.3409          11.349         11.3593         11.3718         11.3866         11.4037          11.423         11.4444         11.4681  
       11.4939         11.5218         11.5519          11.584         11.6182         11.6544         11.6926         11.7327         11.7748         11.8187  
       11.3102         11.3113         11.3149         11.3207         11.3289         11.3394         11.3522         11.3673         11.3846         11.4043  
       11.4261         11.4502         11.4765         11.5049         11.5355         11.5683         11.6031           11.64         11.6788         11.7197  
       11.7626         11.8073         11.2898          11.291         11.2946         11.3005         11.3089         11.3195         11.3326         11.3479  
       11.3656         11.3856         11.4078         11.4323         11.4591         11.4881         11.5192         11.5525          11.588         11.6255  
       11.6651         11.7067         11.7503         11.7958         11.2694         11.2706         11.2743         11.2803         11.2888         11.2997  
       11.3129         11.3286         11.3465         11.3669         11.3895         11.4145         11.4417         11.4712         11.5029         11.5368  
       11.5728          11.611         11.6513         11.6937          11.738         11.7844  
# Y
      -13.5277        -13.5277        -13.5277        -13.5277        -13.5277        -13.5277        -13.5277        -13.5277        -13.5277        -13.5277  
      -13.5277        -13.5277        -13.5277        -13.5277        -13.5277        -13.5277        -13.5277        -13.5277        -13.5277        -13.5277  
      -13.5277        -13.5277        -13.0961        -13.0961        -13.0961        -13.0961        -13.0961        -13.0961        -13.0961        -13.0961  
      -13.0961        -13.0961        -13.0961        -13.0961        -13.0961        -13.0961        -13.0961        -13.0961        -13.0961        -13.0961  
      -13.0961        -13.0961        -13.0961        -13.0961        -12.6644        -12.6644        -12.6644        -12.6644        -12.6644        -12.6644  
      -12.6644        -12.6644        -12.6644        -12.6644        -12.6644        -12.6644        -12.6644        -12.6644        -12.6644        -12.6644  
      -12.6644        -12.6644        -12.6644        -12.6644        -12.6644        -12.6644        -12.2328        -12.2328        -12.2328        -12.2328  
      -12.2328        -12.2328        -12.2328        -12.2328        -12.2328        -12.2328        -12.2328        -12.2328        -12.2328        -12.2328  
      -12.2328        -12.2328        -12.2328        -12.2328        -12.2328        -12.2328        -12.2328        -12.2328        -11.8011        -11.8011  
      -11.8011        -11.8011        -11.8011        -11.8011        -11.8011        -11.8011        -11.8011        -11.8011        -11.8011        -11.8011  
      -11.8011        -11.8011        -11.8011        -11.8011        -11.8011        -11.8011        -11.8011        -11.8011        -11.8011        -11.8011  
      -11.3695        -11.3695        -11.3695        -11.3695        -11.3695        -11.3695        -11.3695        -11.3695        -11.3695        -11.3695  
      -11.3695        -11.3695        -11.3695        -11.3695        -11.3695        -11.3695        -11.3695        -11.3695        -11.3695        -11.3695  
      -11.3695        -11.3695        -10.9378        -10.9378        -10.9378        -10.9378        -10.9378        -10.9378        -10.9378        -10.9378  
      -10.9378        -10.9378        -10.9378        -10.9378        -10.9378        -10.9378        -10.9378        -10.9378        -10.9378        -10.9378  
      -10.9378        -10.9378        -10.9378        -10.9378        -10.5061        -10.5061        -10.5061        -10.5061        -10.5061        -10.5061  
      -10.5061        -10.5061        -10.5061        -10.5061        -10.5061        -10.5061        -10.5061        -10.5061        -10.5061        -10.5061  
      -10.5061        -10.5061        -10.5061        -10.5061        -10.5061        -10.5061        -10.0745        -10.0745        -10.0745        -10.0745  
      -10.0745        -10.0745        -10.0745        -10.0745        -10.0745        -10.0745        -10.0745        -10.0745        -10.0745        -10.0745  
      -10.0745        -10.0745        -10.0745        -10.0745        -10.0745        -10.0745        -10.0745        -10.0745        -9.64283        -9.64283  
      -9.64283        -9.64283        -9.64283        -9.64283        -9.64283        -9.64283        -9.64283        -9.64283        -9.64283        -9.64283  
      -9.64283        -9.64283        -9.64283        -9.64283        -9.64283        -9.64283        -9.64283        -9.64283        -9.64283        -9.64283  
      -9.21117        -9.21117        -9.21117        -9.21117        -9.21117        -9.21117        -9.21117        -9.21117        -9.21117        -9.21117  
      -9.21117        -9.21117        -9.21117        -9.21117        -9.21117        -9.21117        -9.21117        -9.21117        -9.21117        -9.21117  
      -9.21117        -9.21117        -8.77951        -8.77951        -8.77951        -8.77951        -8.77951        -8.77951        -8.77951        -8.77951  
      -8.77951        -8.77951        -8.77951        -8.77951        -8.77951        -8.77951        -8.77951        -8.77951        -8.77951        -8.77951  
      -8.77951        -8.77951        -8.77951        -8.77951        -8.34785        -8.34785        -8.34785        -8.34785        -8.34785        -8.34785  
      -8.34785        -8.34785        -8.34785        -8.34785        -8.34785        -8.34785        -8.34785        -8.34785        -8.34785        -8.34785  
      -8.34785        -8.34785        -8.34785        -8.34785        -8.34785        -8.34785        -7.91619        -7.91619        -7.91619        -7.91619  
      -7.91619        -7.91619        -7.91619        -7.91619        -7.91619        -7.91619        -7.91619        -7.91619        -7.91619        -7.91619  
      -7.91619        -7.91619        -7.91619        -7.91619        -7.91619        -7.91619        -7.91619        -7.91619        -7.48453        -7.48453  
      -7.48453        -7.48453        -7.48453        -7.48453        -7.48453        -7.48453        -7.48453        -7.48453        -7.48453        -7.48453  
      -7.48453        -7.48453        -7.48453        -7.48453        -7.48453        -7.48453        -7.48453        -7.48453        -7.48453        -7.48453  
      -7.05288        -7.05288        -7.05288        -7.05288        -7.05288        -7.05288        -7.05288        -7.05288        -7.05288        -7.05288  
      -7.05288        -7.05288        -7.05288        -7.05288        -7.05288        -7.05288        -7.05288        -7.05288        -7.05288        -7.05288  
      -7.05288        -7.05288        -6.62122        -6.62122        -6.62122        -6.62122        -6.62122        -6.62122        -6.62122        -6.62122  
      -6.62122        -6.62122        -6.62122        -6.62122        -6.62122        -6.62122        -6.62122        -6.62122        -6.62122        -6.62122  
      -6.62122        -6.62122        -6.62122        -6.62122        -6.18956        -6.18956        -6.18956        -6.18956        -6.18956        -6.18956  
      -6.18956        -6.18956        -6.18956        -6.18956        -6.18956        -6.18956        -6.18956        -6.18956        -6.18956        -6.18956  
      -6.18956        -6.18956        -6.18956        -6.18956        -6.18956        -6.18956         -5.7579         -5.7579         -5.7579         -5.7579  
       -5.7579         -5.7579         -5.7579         -5.7579         -5.7579         -5.7579         -5.7579         -5.7579         -5.7579         -5.7579  
       -5.7579         -5.7579         -5.7579         -5.7579         -5.7579         -5.7579         -5.7579         -5.7579        -5.32624        -5.32624  
      -5.32624        -5.32624        -5.32624        -5.32624        -5.32624        -5.32624        -5.32624        -5.32624        -5.32624        -5.32624  
      -5.32624        -5.32624        -5.32624        -5.32624        -5.32624        -5.32624        -5.32624        -5.32624        -5.32624        -5.32624  
      -4.89459        -4.89459        -4.89459        -4.89459        -4.89459        -4.89459        -4.89459        -4.89459        -4.89459        -4.89459  
      -4.89459        -4.89459        -4.89459        -4.89459        -4.89459        -4.89459        -4.89459        -4.89459        -4.89459        -4.89459  
      -4.89459        -4.89459        -4.46293        -4.46293        -4.46293        -4.46293        -4.46293        -4.46293        -4.46293        -4.46293  
      -4.46293        -4.46293        -4.46293        -4.46293        -4.46293        -4.46293        -4.46293        -4.46293        -4.46293        -4.46293  
      -4.46293        -4.46293        -4.46293        -4.46293        -4.03127        -4.03127        -4.03127        -4.03127        -4.03127        -4.03127  
      -4.03127        -4.03127        -4.03127        -4.03127        -4.03127        -4.03127        -4.03127        -4.03127        -4.03127        -4.03127  
      -4.03127        -4.03127        -4.03127        -4.03127        -4.03127        -4.03127  
# Z
       1.45515         1.45193         1.44674         1.44135         1.43599         1.43078         1.42582         1.42131         1.41759          1.4147  
       1.41219         1.40985         1.40783         1.40619          1.4048         1.40362         1.40262         1.40177         1.40101         1.40032  
       1.39967         1.39904         1.44745         1.44405         1.43857         1.43287         1.42721          1.4217         1.41646          1.4117  
       1.40777         1.40471         1.40207         1.39959         1.39746         1.39572         1.39426         1.39301         1.39196         1.39106  
       1.39026         1.38953         1.38884         1.38817         1.43975         1.43617         1.43039         1.42439         1.41843         1.41262  
        1.4071         1.40209         1.39795         1.39473         1.39195         1.38934         1.38709         1.38526         1.38372          1.3824  
        1.3813         1.38035         1.37951         1.37874         1.37801         1.37731         1.43205         1.42828         1.42222         1.41591  
       1.40964         1.40355         1.39775         1.39248         1.38813         1.38475         1.38182         1.37908         1.37672          1.3748  
       1.37318          1.3718         1.37063         1.36963         1.36875         1.36795         1.36718         1.36644         1.42434          1.4204  
       1.41404         1.40743         1.40086         1.39447         1.38839         1.38287         1.37831         1.37477          1.3717         1.36883  
       1.36635         1.36434         1.36264         1.36119         1.35997         1.35892           1.358         1.35715         1.35635         1.35558  
       1.41664         1.41252         1.40586         1.39895         1.39208         1.38539         1.37904         1.37326         1.36849         1.36478  
       1.36158         1.35857         1.35598         1.35387          1.3521         1.35058         1.34931         1.34821         1.34724         1.34636  
       1.34552         1.34471         1.40894         1.40463         1.39769         1.39047          1.3833         1.37632         1.36968         1.36365  
       1.35867          1.3548         1.35145         1.34831         1.34561         1.34341         1.34156         1.33997         1.33864          1.3375  
       1.33649         1.33557         1.33469         1.33385         1.40124         1.39675         1.38951         1.38199         1.37451         1.36724  
       1.36032         1.35404         1.34885         1.34482         1.34133         1.33806         1.33524         1.33295         1.33102         1.32937  
       1.32798         1.32679         1.32574         1.32477         1.32386         1.32298         1.39353         1.38887         1.38133         1.37351  
       1.36573         1.35816         1.35097         1.34443         1.33903         1.33484          1.3312          1.3278         1.32487         1.32249  
       1.32048         1.31876         1.31732         1.31608         1.31498         1.31398         1.31303         1.31212         1.38583         1.38098  
       1.37316         1.36503         1.35695         1.34909         1.34161         1.33482         1.32921         1.32485         1.32108         1.31755  
        1.3145         1.31202         1.30994         1.30815         1.30665         1.30537         1.30423         1.30319          1.3022         1.30125  
       1.37813          1.3731         1.36498         1.35655         1.34817         1.34001         1.33226         1.32521         1.31939         1.31487  
       1.31096         1.30729         1.30413         1.30156          1.2994         1.29755         1.29599         1.29465         1.29347          1.2924  
       1.29137         1.29039         1.37043         1.36521         1.35681         1.34807         1.33939         1.33094          1.3229          1.3156  
       1.30957         1.30489         1.30083         1.29704         1.29376          1.2911         1.28886         1.28694         1.28533         1.28394  
       1.28272          1.2816         1.28054         1.27952         1.36272         1.35733         1.34863         1.33959          1.3306         1.32186  
       1.31354           1.306         1.29975         1.29491         1.29071         1.28678         1.28339         1.28064         1.27832         1.27633  
       1.27466         1.27323         1.27197         1.27081         1.26971         1.26866         1.35502         1.34945         1.34045         1.33111  
       1.32182         1.31278         1.30419         1.29639         1.28993         1.28492         1.28058         1.27652         1.27302         1.27017  
       1.26778         1.26572           1.264         1.26252         1.26121         1.26002         1.25888         1.25779         1.34732         1.34156  
       1.33228         1.32262         1.31304         1.30371         1.29483         1.28678         1.28011         1.27494         1.27046         1.26627  
       1.26265         1.25971         1.25724         1.25512         1.25334         1.25181         1.25046         1.24922         1.24805         1.24693  
       1.33962         1.33368          1.3241         1.31414         1.30426         1.29463         1.28548         1.27717         1.27029         1.26496  
       1.26034         1.25601         1.25228         1.24925          1.2467         1.24451         1.24267          1.2411          1.2397         1.23843  
       1.23722         1.23606         1.33191          1.3258         1.31592         1.30566         1.29547         1.28555         1.27612         1.26756  
       1.26047         1.25497         1.25021         1.24576         1.24191         1.23879         1.23616          1.2339         1.23201         1.23039  
       1.22895         1.22764         1.22639         1.22519         1.32421         1.31791         1.30775         1.29718         1.28669         1.27648  
       1.26677         1.25795         1.25065         1.24499         1.24009          1.2355         1.23154         1.22832         1.22561          1.2233  
       1.22135         1.21968          1.2182         1.21685         1.21556         1.21433         1.31651         1.31003         1.29957          1.2887  
       1.27791          1.2674         1.25741         1.24834         1.24083         1.23501         1.22997         1.22524         1.22117         1.21786  
       1.21507         1.21269         1.21068         1.20896         1.20744         1.20605         1.20473         1.20346         1.30881         1.30214  
        1.2914         1.28022         1.26913         1.25832         1.24805         1.23873         1.23101         1.22503         1.21984         1.21499  
        1.2108          1.2074         1.20453         1.20208         1.20002         1.19825         1.19669         1.19526          1.1939          1.1926  
       1.30111         1.29426         1.28322         1.27174         1.26034         1.24925          1.2387         1.22912         1.22119         1.21504  
       1.20972         1.20473         1.20043         1.19694         1.19399         1.19147         1.18936         1.18754         1.18593         1.18447  
       1.18307         1.18173          1.2934         1.28638         1.27504         1.26326         1.25156         1.24017         1.22934         1.21951  
       1.21137         1.20506         1.19959         1.19448         1.19006         1.18647         1.18345         1.18087         1.17869         1.17683  
       1.17518         1.17367         1.17224         1.17087          1.2857         1.27849         1.26687         1.25478         1.24278          1.2311  
       1.21999          1.2099         1.20155         1.19508         1.18947         1.18422         1.17969         1.17601         1.17291         1.17026  
       1.16803         1.16612         1.16443         1.16288         1.16141            1.16  


ZONE
T           = "wing_segment_from_wing_section_1_element_1_to_wing_section_2_element_1_symm; Col:1; Row:1; CS:0; Side:Upper"
I           = 22
J           = 23
DATAPACKING = BLOCK
ZONETYPE    = ORDERED
VARLOCATION = (NODAL, NODAL, NODAL)
AUXDATA CS  = ""
# X
       11.7179         11.7186         11.7208         11.7245         11.7297         11.7364         11.7445         11.7542         11.7652         11.7778  
       11.7917         11.8071         11.8239         11.8421         11.8617         11.8826         11.9049         11.9284         11.9533         11.9795  
       12.0069         12.0355         11.6975         11.6982         11.7005         11.7043         11.7097         11.7165         11.7249         11.7348  
       11.7462         11.7591         11.7734         11.7892         11.8065         11.8252         11.8453         11.8668         11.8897          11.914  
       11.9396         11.9664         11.9946         12.0241         11.6771         11.6779         11.6802         11.6841         11.6896         11.6967  
       11.7053         11.7154         11.7271         11.7403         11.7551         11.7713         11.7891         11.8083          11.829         11.8511  
       11.8746         11.8995         11.9258         11.9534         11.9824         12.0126         11.6567         11.6575         11.6599         11.6639  
       11.6696         11.6768         11.6856         11.6961         11.7081         11.7216         11.7368         11.7535         11.7717         11.7914  
       11.8126         11.8353         11.8594          11.885          11.912         11.9404         11.9701         12.0011         11.6364         11.6371  
       11.6396         11.6437         11.6495         11.6569          11.666         11.6767          11.689         11.7029         11.7185         11.7356  
       11.7543         11.7745         11.7963         11.8195         11.8443         11.8705         11.8982         11.9273         11.9578         11.9897  
        11.616         11.6168         11.6193         11.6235         11.6295         11.6371         11.6463         11.6573         11.6699         11.6842  
       11.7002         11.7177         11.7369         11.7576         11.7799         11.8038         11.8292         11.8561         11.8845         11.9143  
       11.9455         11.9782         11.5956         11.5964          11.599         11.6033         11.6094         11.6172         11.6267         11.6379  
       11.6509         11.6655         11.6818         11.6998         11.7194         11.7407         11.7636          11.788          11.814         11.8416  
       11.8707         11.9012         11.9333         11.9667         11.5752          11.576         11.5787         11.5831         11.5893         11.5973  
       11.6071         11.6186         11.6318         11.6468         11.6635         11.6819          11.702         11.7238         11.7472         11.7723  
       11.7989         11.8271         11.8569         11.8882          11.921         11.9553         11.5548         11.5557         11.5584         11.5629  
       11.5693         11.5775         11.5874         11.5992         11.6128         11.6281         11.6452         11.6641         11.6846         11.7069  
       11.7309         11.7565         11.7838         11.8127         11.8431         11.8752         11.9087         11.9438         11.5344         11.5353  
       11.5381         11.5427         11.5492         11.5576         11.5678         11.5798         11.5937         11.6094         11.6269         11.6462  
       11.6672           11.69         11.7145         11.7407         11.7686         11.7982         11.8294         11.8621         11.8965         11.9323  
        11.514         11.5149         11.5178         11.5225         11.5292         11.5377         11.5482         11.5605         11.5747         11.5907  
       11.6086         11.6283         11.6498         11.6731         11.6982          11.725         11.7535         11.7837         11.8156         11.8491  
       11.8842         11.9209         11.4936         11.4946         11.4975         11.5023         11.5091         11.5179         11.5285         11.5411  
       11.5556          11.572         11.5903         11.6104         11.6324         11.6562         11.6818         11.7092         11.7384         11.7692  
       11.8018          11.836         11.8719         11.9094         11.4733         11.4742         11.4772         11.4821         11.4891          11.498  
       11.5089         11.5217         11.5365         11.5533          11.572         11.5925          11.615         11.6393         11.6655         11.6935  
       11.7232         11.7548          11.788          11.823         11.8596         11.8979         11.4529         11.4538         11.4569         11.4619  
        11.469         11.4781         11.4892         11.5024         11.5175         11.5346         11.5536         11.5746         11.5976         11.6224  