TITLE     = "AircraftModel"
VARIABLES = "X",
            "Y",
            "Z",
            "CD",
            "CS",
            "CL",
            "CMD",
            "CMS",
            "CML",
            "RefArea",
            "RefLength"


ZONE
T           = "AeroCase:'AC_1'; Alt:8000; M:0.44; Re:9.1389e+06; AoS:0; AoA:2.82398 Wing:'wing'"
I           = 68
DATAPACKING = POINT
ZONETYPE    = ORDERED
AUXDATA CS  = ""
       8.46072        -11.5091         2.00351         0.01771     -0.00146309         0.37741       0.0219831      -0.0801461     -0.00298194        0.305643        0.837241
        8.4488        -11.1441         2.00357       0.0205666     -0.00245246        0.634681      0.00460569        -0.12009     0.000123834        0.329076        0.901429
       8.43687         -10.779         2.00363       0.0159623     -0.00277078        0.706605      0.00315134       -0.123188    -0.000167369        0.352509        0.965618
       8.42494        -10.4139          2.0037       0.0137871     -0.00299962        0.745486      0.00218631       -0.124005    -0.000114601        0.375941         1.02981
       8.41302        -10.0489         2.00376        0.012183     -0.00313363        0.766379      0.00167064       -0.123554    -9.95334e-05        0.399369           1.094
       8.40109        -9.68382         2.00382       0.0110969     -0.00321099        0.777791      0.00134355       -0.122677    -8.71284e-05        0.422807         1.15819
       8.38917        -9.31876         2.00388       0.0103728     -0.00325085        0.783657      0.00111806       -0.121645    -7.86678e-05         0.44624         1.22238
       8.37724         -8.9537         2.00394      0.00990536     -0.00326939        0.786092     0.000952573       -0.120577    -7.24299e-05        0.469673         1.28657
       8.36532        -8.58864           2.004      0.00962199     -0.00326925        0.786314     0.000825472       -0.119525    -6.72657e-05        0.493107         1.35076
       8.35339        -8.22358         2.00407      0.00947274     -0.00325852        0.785059     0.000724414       -0.118513    -6.43571e-05         0.51654         1.41495
       8.34147        -7.85852         2.00413       0.0094227     -0.00324045        0.782795     0.000642013        -0.11755     -6.1439e-05        0.539974         1.47914
       8.32954        -7.49346         2.00419      0.00944724     -0.00321582        0.779828     0.000573412        -0.11664    -6.01321e-05        0.563408         1.54333
       8.31762         -7.1284         2.00425       0.0095288     -0.00318958        0.776362     0.000515427       -0.115783    -5.96414e-05        0.586841         1.60752
       8.30569        -6.76334         2.00431      0.00965451     -0.00315835        0.772543     0.000465845       -0.114979    -5.91548e-05        0.610275         1.67172
       8.29377        -6.39828         2.00437        0.009815     -0.00312555        0.768474     0.000423018       -0.114224    -6.00928e-05        0.633709         1.73591
       8.28184        -6.03323         2.00444       0.0100036     -0.00309145        0.764235     0.000385867       -0.113517    -6.04977e-05        0.657143          1.8001
       8.26992        -5.66817          2.0045       0.0102156     -0.00305543        0.759892     0.000353494       -0.112858    -6.19248e-05        0.680575         1.86429
       8.25799        -5.30311         2.00456       0.0104487     -0.00302089        0.755507     0.000325342       -0.112246    -6.39072e-05         0.70401         1.92848
       8.24607        -4.93805         2.00462       0.0107034     -0.00298327        0.751143      0.00030106       -0.111683    -6.56616e-05        0.727444         1.99268
       8.23414        -4.57299         2.00468       0.0109867     -0.00294471        0.746874     0.000280345       -0.111165    -6.89688e-05        0.750878         2.05687
       8.22222        -4.20793         2.00475       0.0113248     -0.00290089        0.742784     0.000262899       -0.110673    -7.21541e-05        0.774312         2.12106
       8.21029        -3.84287         2.00481       0.0125129     -0.00267251        0.738322     0.000214186       -0.109829    -0.000109594        0.797746         2.18525
       8.20433        -3.48778         2.00393       0.0131057      0.00626289        0.744519     0.000330583       -0.110014      0.00228842        0.765292         2.21732
       8.20432        -3.14266          2.0021       0.0136106      0.00636634        0.760606      0.00030309       -0.110911      0.00228492        0.765278         2.21728
       8.20432        -2.79753         2.00028        0.014867      0.00645441        0.775698     0.000305836       -0.111332      0.00230577        0.765275         2.21727
       8.20432        -2.45241         1.99845       0.0161998      0.00653773        0.790271     0.000308653       -0.111657      0.00232904        0.765275         2.21728
       8.20432        -2.10729         1.99663       0.0175954      0.00662044        0.804391     0.000310614       -0.111998      0.00234795        0.765287         2.21731
       8.20433        -1.76217          1.9948       0.0190969      0.00669628        0.817796     0.000308536       -0.112338      0.00236685        0.765306         2.21737
       8.20435        -1.41704         1.99298       0.0207014      0.00676872        0.830206     0.000302971       -0.112655      0.00238446        0.765334         2.21745
       8.20436        -1.07192         1.99115        0.022421      0.00683202        0.841317     0.000293002       -0.112942      0.00239926        0.765371         2.21755
       8.20439       -0.726796         1.98933        0.024274      0.00688771        0.850743     0.000277207         -0.1132       0.0024117        0.765415         2.21768
       8.20441       -0.381673          1.9875       0.0262708       0.0069297        0.857959     0.000253677       -0.113463      0.00242317        0.765467         2.21783
       8.20443       -0.156833         1.98631       0.0276845      0.00695436        0.861516     0.000188601       -0.113775       0.0024532        0.231911         2.21794
       8.20444      -0.0522779         1.98576       0.0285458      0.00702382        0.867204      0.00025831       -0.115599      0.00248249        0.231917           2.218
       8.20444       0.0522779         1.98576       0.0285458     -0.00702382        0.867204     -0.00025831       -0.115599     -0.00248249        0.231917           2.218
       8.20443        0.156833         1.98631       0.0276845     -0.00695436        0.861516    -0.000188601       -0.113775      -0.0024532        0.231911         2.21794
       8.20441        0.381673          1.9875       0.0262708      -0.0069297        0.857959    -0.000253677       -0.113463     -0.00242317        0.765467         2.21783
       8.20439        0.726796         1.98933        0.024274     -0.00688771        0.850743    -0.000277207         -0.1132      -0.0024117        0.765415         2.21768
       8.20436         1.07192         1.99115        0.022421     -0.00683202        0.841317    -0.000293002       -0.112942     -0.00239926        0.765371         2.21755
       8.20435         1.41704         1.99298       0.0207014     -0.00676872        0.830206    -0.000302971       -0.112655     -0.00238446        0.765334         2.21745
       8.20433         1.76217          1.9948       0.0190969     -0.00669628        0.817796    -0.000308536       -0.112338     -0.00236685        0.765306         2.21737
       8.20432         2.10729         1.99663       0.0175954     -0.00662044        0.804391    -0.000310614       -0.111998     -0.00234795        0.765287         2.21731
       8.20432         2.45241         1.99845       0.0161998     -0.00653773        0.790271    -0.000308653       -0.111657     -0.00232904        0.765275         2.21728
       8.20432         2.79753         2.00028        0.014867     -0.00645441        0.775698    -0.000305836       -0.111332     -0.00230577        0.765275         2.21727
       8.20432         3.14266          2.0021       0.0136106     -0.00636634        0.760606     -0.00030309       -0.110911     -0.00228492        0.765278         2.21728
       8.20433         3.48778         2.00393       0.0131057     -0.00626289        0.744519    -0.000330583       -0.110014     -0.00228842        0.765292         2.21732
       8.21029         3.84287         2.00481       0.0125129      0.00267251        0.738322    -0.000214186       -0.109829     0.000109594        0.797746         2.18525
       8.22222         4.20793         2.00475       0.0113248      0.00290089        0.742784    -0.000262899       -0.110673     7.21541e-05        0.774312         2.12106
       8.23414         4.57299         2.00468       0.0109867      0.00294471        0.746874    -0.000280345       -0.111165     6.89688e-05        0.750878         2.05687
       8.24607         4.93805         2.00462       0.0107034      0.00298327        0.751143     -0.00030106       -0.111683     6.56616e-05        0.727444         1.99268
       8.25799         5.30311         2.00456       0.0104487      0.00302089        0.755507    -0.000325342       -0.112246     6.39072e-05         0.70401         1.92848
       8.26992         5.66817          2.0045       0.0102156      0.00305543        0.759892    -0.000353494       -0.112858     6.19248e-05        0.680575         1.86429
       8.28184         6.03323         2.00444       0.0100036      0.00309145        0.764235    -0.000385867       -0.113517     6.04977e-05        0.657143          1.8001
       8.29377         6.39828         2.00437        0.009815      0.00312555        0.768474    -0.000423018       -0.114224     6.00928e-05        0.633709         1.73591
       8.30569         6.76334         2.00431      0.00965451      0.00315835        0.772543    -0.000465845       -0.114979     5.91548e-05        0.610275         1.67172
       8.31762          7.1284         2.00425       0.0095288      0.00318958        0.776362    -0.000515427       -0.115783     5.96414e-05        0.586841         1.60752
       8.32954         7.49346         2.00419      0.00944724      0.00321582        0.779828    -0.000573412        -0.11664     6.01321e-05        0.563408         1.54333
       8.34147         7.85852         2.00413       0.0094227      0.00324045        0.782795    -0.000642013        -0.11755      6.1439e-05        0.539974         1.47914
       8.35339         8.22358         2.00407      0.00947274      0.00325852        0.785059    -0.000724414       -0.118513     6.43571e-05         0.51654         1.41495
       8.36532         8.58864           2.004      0.00962199      0.00326925        0.786314    -0.000825472       -0.119525     6.72657e-05        0.493107         1.35076
       8.37724          8.9537         2.00394      0.00990536      0.00326939        0.786092    -0.000952573       -0.120577     7.24299e-05        0.469673         1.28657
       8.38917         9.31876         2.00388       0.0103728      0.00325085        0.783657     -0.00111806       -0.121645     7.86678e-05         0.44624         1.22238
       8.40109         9.68382         2.00382       0.0110969      0.00321099        0.777791     -0.00134355       -0.122677     8.71284e-05        0.422807         1.15819
       8.41302         10.0489         2.00376        0.012183      0.00313363        0.766379     -0.00167064       -0.123554     9.95334e-05        0.399369           1.094
       8.42494         10.4139          2.0037       0.0137871      0.00299962        0.745486     -0.00218631       -0.124005     0.000114601        0.375941         1.02981
       8.43687          10.779         2.00363       0.0159623      0.00277078        0.706605     -0.00315134       -0.123188     0.000167369        0.352509        0.965618
        8.4488         11.1441         2.00357       0.0205666      0.00245246        0.634681     -0.00460569        -0.12009    -0.000123834        0.329076        0.901429
       8.46072         11.5091         2.00351         0.01771      0.00146309         0.37741      -0.0219831      -0.0801461      0.00298194        0.305643        0.837241


ZONE
T           = "AeroCase:'AC_1'; Alt:8000; M:0.44; Re:9.1389e+06; AoS:0; AoA:2.82398 Wing:'htp'"
I           = 11
DATAPACKING = POINT
ZONETYPE    = ORDERED
AUXDATA CS  = ""
       20.0393        -2.82609             5.3      0.00224599    -0.000106646        0.061753      0.00867774      0.00117442    -0.000384109         1.11402          1.0169
       19.8912        -1.73058             5.3      0.00297164    -0.000124812       0.0792591     0.000687665     9.30483e-05    -2.77209e-05         1.45881         1.33162
       19.7431       -0.635068             5.3      0.00277038    -9.01757e-05       0.0699605     0.000182357     2.47834e-05    -2.36422e-05         1.80359         1.64635
       19.6687      -0.0852651             5.3      0.00296826    -2.93714e-05       0.0648895     3.05398e-10     5.74255e-11    -2.48223e-09      0.00738448          1.8043
       19.6654      -0.0604636             5.3      0.00318555     1.65633e-06         0.06463     -3.4732e-08     3.13053e-09    -1.17431e-06       0.0824383         1.81142
       19.6597      -0.0188542             5.3      0.00653781     0.000460491       0.0640452    -1.01837e-06    -5.19652e-10     -2.0567e-05       0.0687568         1.82338
       19.6598       0.0189449             5.3      0.00651822    -0.000457414        0.064047     1.01828e-06    -5.02409e-10     2.05678e-05       0.0690865         1.82335
       19.6655       0.0615087             5.3       0.0031762    -3.16377e-07       0.0646409     3.36853e-08     3.46047e-09     1.20212e-06       0.0855532         1.81112
       19.7428        0.633248             5.3      0.00277059     9.00353e-05       0.0699435    -0.000181922      2.4726e-05     2.37997e-05         1.80537         1.64687
        19.891         1.72949             5.3      0.00297157     0.000124778       0.0792536    -0.000687426     9.30108e-05     2.77223e-05         1.46012         1.33194
       20.0392         2.82573             5.3      0.00224632     0.000106662       0.0617619      -0.0086836      0.00117522     0.000384357         1.11488           1.017


ZONE
T           = "AeroCase:'AC_1'; Alt:8000; M:0.44; Re:9.1389e+06; AoS:0; AoA:2.82398 Wing:'vtp'"
I           = 6
DATAPACKING = POINT
ZONETYPE    = ORDERED
AUXDATA CS  = ""
       17.3978    -1.11596e-17         1.52915     8.52841e-18     1.66576e-09    -6.46069e-18               0               0               0        0.204057         3.50029
       17.4589    -4.55679e-17         1.61902     1.19328e-17     3.87282e-09    -9.04199e-18               0               0               0        0.420683         3.46389
       17.5389    -9.06252e-17         1.73671     1.32623e-17     5.53045e-09    -1.00486e-17               0               0               0        0.389193         3.41622
       18.0452    -3.75855e-16         2.48171    -4.61007e-18     1.04536e-08     3.49312e-18               0               0               0         4.28573         3.11444
       18.9804    -9.02696e-16         3.85779     2.14494e-16     3.69591e-08    -1.62523e-16               0               0               0         3.51869         2.55704
       19.9156    -1.42954e-15         5.23387    -9.84559e-15     1.11478e-07     7.46006e-15               0               0               0         2.75165         1.99963
