TITLE     = "AircraftModel"
VARIABLES = "X",
            "Y",
            "Z"


ZONE
T           = "wing_segment_from_wing_section_1_element_1_to_wing_section_2_element_1_symm; Col:1; Row:1; CS:0; Side:Lower"
I           = 28
J           = 22
DATAPACKING = BLOCK
ZONETYPE    = ORDERED
VARLOCATION = (NODAL, NODAL, NODAL)
AUXDATA CS  = ""
# X
       8.19714         8.19744         8.19817          8.1993         8.20083         8.20274         8.20503         8.20769         8.21073         8.21416  
       8.21797         8.22214         8.22668          8.2316         8.23688         8.24252         8.24851         8.25485         8.26153         8.26854  
       8.27589         8.28356         8.29154         8.29983         8.30841         8.31728         8.32643         8.33583         8.17109         8.17142  
       8.17228         8.17361         8.17543         8.17771         8.18046         8.18365         8.18732         8.19144         8.19603         8.20106  
       8.20654         8.21248         8.21885         8.22566          8.2329         8.24055         8.24862         8.25709         8.26596         8.27523  
       8.28488          8.2949         8.30527         8.31599         8.32705         8.33843         8.14503         8.14541         8.14639         8.14793  
       8.15003         8.15269         8.15588         8.15962          8.1639         8.16873         8.17409         8.17999         8.18641         8.19335  
       8.20083          8.2088         8.21728         8.22626         8.23571         8.24564         8.25604         8.26691         8.27822         8.28996  
       8.30213          8.3147         8.32767         8.34102         8.11898         8.11939         8.12049         8.12224         8.12463         8.12766  
       8.13131         8.13558         8.14049         8.14601         8.15216         8.15891         8.16627         8.17423          8.1828         8.19194  
       8.20166         8.21196          8.2228         8.23419         8.24612         8.25859         8.27156         8.28503         8.29899         8.31341  
        8.3283         8.34361         8.09293         8.09338          8.0946         8.09655         8.09923         8.10263         8.10674         8.11155  
       8.11707         8.12329         8.13022         8.13783         8.14613         8.15511         8.16477         8.17508         8.18605         8.19766  
       8.20989         8.22274          8.2362         8.25026          8.2649          8.2801         8.29585         8.31212         8.32892         8.34621  
       8.06687         8.06736         8.06871         8.07087         8.07383         8.07761         8.08217         8.08751         8.09365         8.10058  
       8.10828         8.11676         8.12599         8.13599         8.14674         8.15822         8.17043         8.18336         8.19698         8.21129  
       8.22628         8.24194         8.25824         8.27517          8.2927         8.31083         8.32954          8.3488         8.04082         8.04135  
       8.04281         8.04518         8.04844         8.05258          8.0576         8.06348         8.07024         8.07786         8.08635         8.09568  
       8.10585         8.11687         8.12871         8.14136         8.15482         8.16906         8.18407         8.19984         8.21636         8.23361  
       8.25158         8.27023         8.28956         8.30955         8.33017         8.35139         8.01476         8.01533         8.01692         8.01949  
       8.02304         8.02755         8.03302         8.03944         8.04682         8.05514         8.06441          8.0746         8.08572         8.09775  
       8.11068          8.1245          8.1392         8.15476         8.17116         8.18839         8.20644         8.22529         8.24492          8.2653  
       8.28642         8.30826         8.33079         8.35399         7.98871         7.98932         7.99103          7.9938         7.99764         8.00253  
       8.00845         8.01541          8.0234         8.03243         8.04248         8.05353         8.06558         8.07863         8.09266         8.10764  
       8.12359         8.14046         8.15825         8.17694         8.19652         8.21697         8.23826         8.26037         8.28328         8.30697  
       8.33141         8.35658         7.96265          7.9633         7.96514         7.96812         7.97224          7.9775         7.98388         7.99137  
       7.99999         8.00971         8.02054         8.03245         8.04544          8.0595         8.07463         8.09079         8.10797         8.12616  
       8.14534         8.16549          8.1866         8.20864          8.2316         8.25544         8.28014         8.30568         8.33203         8.35917  
        7.9366         7.93729         7.93924         7.94243         7.94684         7.95247         7.95931         7.96734         7.97657           7.987  
        7.9986         8.01138          8.0253         8.04038          8.0566         8.07393         8.09235         8.11186         8.13243         8.15404  
       8.17668         8.20032         8.22493          8.2505           8.277         8.30439         8.33266         8.36177         7.91054         7.91128  
       7.91335         7.91674         7.92144         7.92745         7.93474          7.9433         7.95316         7.96428         7.97667          7.9903  
       8.00517         8.02126         8.03857         8.05707         8.07674         8.09756         8.11952         8.14259         8.16676         8.19199  
       8.21827         8.24557         8.27386          8.3031         8.33328         8.36436         7.88449         7.88526         7.88746         7.89106  
       7.89604         7.90242         7.91016         7.91927         7.92974         7.94156         7.95473         7.96922         7.98503         8.00214  
       8.02054         8.04021         8.06112         8.08327         8.10661         8.13114         8.15684         8.18367         8.21161         8.24064  
       8.27071         8.30181          8.3339         8.36695         7.85844         7.85925         7.86157         7.86537         7.87065         7.87739  
       7.88559         7.89523         7.90632         7.91885         7.93279         7.94815         7.96489         7.98302         8.00251         8.02335  
       8.04551         8.06897          8.0937         8.11969         8.14692         8.17535         8.20495         8.23571         8.26757         8.30052  
       8.33453         8.36954         7.83238         7.83323         7.83567         7.83968         7.84525         7.85237         7.86102          7.8712  
       7.88291         7.89613         7.91086         7.92707         7.94475          7.9639         7.98449         8.00649         8.02989         8.05467  
       8.08079         8.10824           8.137         8.16702         8.19829         8.23077         8.26443         8.29923         8.33515         8.37214  
       7.80633         7.80722         7.80978         7.81399         7.81985         7.82734         7.83645         7.84716         7.85949         7.87341  
       7.88892         7.90599         7.92462         7.94478         7.96646         7.98963         8.01427         8.04037         8.06788         8.09679  
       8.12707          8.1587         8.19163         8.22584         8.26129         8.29795         8.33577         8.37473         7.78027          7.7812  
       7.78389         7.78831         7.79445         7.80231         7.81187         7.82313         7.83607          7.8507         7.86699         7.88492  
       7.90448         7.92566         7.94843         7.97277         7.99866         8.02607         8.05497         8.08534         8.11715         8.15038  
       8.18497         8.22091         8.25815         8.29666          8.3364         8.37732         7.75422         7.75519         7.75799         7.76262  
       7.76905         7.77728          7.7873         7.79909         7.81266         7.82798         7.84505         7.86384         7.88434         7.90653  
        7.9304         7.95591         7.98304         8.01177         8.04206         8.07389         8.10723         8.14205         8.17831         8.21598  
       8.25501         8.29537         8.33702         8.37992         7.72816         7.72917          7.7321         7.73693         7.74365         7.75226  
       7.76273         7.77506         7.78924         7.80526         7.82311         7.84276          7.8642         7.88741         7.91237         7.93905  
       7.96743         7.99747         8.02915         8.06244         8.09731         8.13373         8.17165         8.21104         8.25187         8.29408  
       8.33764         8.38251         7.70211         7.70316         7.70621         7.71124         7.71826         7.72723         7.73816         7.75102  
       7.76583         7.78255         7.80118         7.82169         7.84406         7.86829         7.89434         7.92219         7.95181         7.98317  
       8.01624         8.05099         8.08739          8.1254         8.16499         8.20611         8.24873         8.29279         8.33827          8.3851  
       7.67605         7.67714         7.68032         7.68556         7.69286          7.7022         7.71359         7.72699         7.74241         7.75983  
       7.77924         7.80061         7.82393         7.84917         7.87632         7.90533         7.93619         7.96887         8.00333         8.03954  
       8.07747         8.11708         8.15833         8.20118         8.24558          8.2915         8.33889          8.3877            7.65         7.65113  
       7.65442         7.65987         7.66746         7.67718         7.68901         7.70295         7.71899         7.73711          7.7573         7.77953  
       7.80379         7.83005         7.85829         7.88847         7.92058         7.95457         7.99042         8.02809         8.06755         8.10876  
       8.15167         8.19625         8.24244         8.29021         8.33951         8.39029  
# Y
      -10.8008        -10.8008        -10.8008        -10.8008        -10.8008        -10.8008        -10.8008        -10.8008        -10.8008        -10.8008  
      -10.8008        -10.8008        -10.8008        -10.8008        -10.8008        -10.8008        -10.8008        -10.8008        -10.8008        -10.8008  
      -10.8008        -10.8008        -10.8008        -10.8008        -10.8008        -10.8008        -10.8008        -10.8008        -10.4608        -10.4608  
      -10.4608        -10.4608        -10.4608        -10.4608        -10.4608        -10.4608        -10.4608        -10.4608        -10.4608        -10.4608  
      -10.4608        -10.4608        -10.4608        -10.4608        -10.4608        -10.4608        -10.4608        -10.4608        -10.4608        -10.4608  
      -10.4608        -10.4608        -10.4608        -10.4608        -10.4608        -10.4608        -10.1207        -10.1207        -10.1207        -10.1207  
      -10.1207        -10.1207        -10.1207        -10.1207        -10.1207        -10.1207        -10.1207        -10.1207        -10.1207        -10.1207  
      -10.1207        -10.1207        -10.1207        -10.1207        -10.1207        -10.1207        -10.1207        -10.1207        -10.1207        -10.1207  
      -10.1207        -10.1207        -10.1207        -10.1207        -9.78072        -9.78072        -9.78072        -9.78072        -9.78072        -9.78072  
      -9.78072        -9.78072        -9.78072        -9.78072        -9.78072        -9.78072        -9.78072        -9.78072        -9.78072        -9.78072  
      -9.78072        -9.78072        -9.78072        -9.78072        -9.78072        -9.78072        -9.78072        -9.78072        -9.78072        -9.78072  
      -9.78072        -9.78072         -9.4407         -9.4407         -9.4407         -9.4407         -9.4407         -9.4407         -9.4407         -9.4407  
       -9.4407         -9.4407         -9.4407         -9.4407         -9.4407         -9.4407         -9.4407         -9.4407         -9.4407         -9.4407  
       -9.4407         -9.4407         -9.4407         -9.4407         -9.4407         -9.4407         -9.4407         -9.4407         -9.4407         -9.4407  
      -9.10068        -9.10068        -9.10068        -9.10068        -9.10068        -9.10068        -9.10068        -9.10068        -9.10068        -9.10068  
      -9.10068        -9.10068        -9.10068        -9.10068        -9.10068        -9.10068        -9.10068        -9.10068        -9.10068        -9.10068  
      -9.10068        -9.10068        -9.10068        -9.10068        -9.10068        -9.10068        -9.10068        -9.10068        -8.76066        -8.76066  
      -8.76066        -8.76066        -8.76066        -8.76066        -8.76066        -8.76066        -8.76066        -8.76066        -8.76066        -8.76066  
      -8.76066        -8.76066        -8.76066        -8.76066        -8.76066        -8.76066        -8.76066        -8.76066        -8.76066        -8.76066  
      -8.76066        -8.76066        -8.76066        -8.76066        -8.76066        -8.76066        -8.42064        -8.42064        -8.42064        -8.42064  
      -8.42064        -8.42064        -8.42064        -8.42064        -8.42064        -8.42064        -8.42064        -8.42064        -8.42064        -8.42064  
      -8.42064        -8.42064        -8.42064        -8.42064        -8.42064        -8.42064        -8.42064        -8.42064        -8.42064        -8.42064  
      -8.42064        -8.42064        -8.42064        -8.42064        -8.08062        -8.08062        -8.08062        -8.08062        -8.08062        -8.08062  
      -8.08062        -8.08062        -8.08062        -8.08062        -8.08062        -8.08062        -8.08062        -8.08062        -8.08062        -8.08062  
      -8.08062        -8.08062        -8.08062        -8.08062        -8.08062        -8.08062        -8.08062        -8.08062        -8.08062        -8.08062  
      -8.08062        -8.08062         -7.7406         -7.7406         -7.7406         -7.7406         -7.7406         -7.7406         -7.7406         -7.7406  
       -7.7406         -7.7406         -7.7406         -7.7406         -7.7406         -7.7406         -7.7406         -7.7406         -7.7406         -7.7406  
       -7.7406         -7.7406         -7.7406         -7.7406         -7.7406         -7.7406         -7.7406         -7.7406         -7.7406         -7.7406  
      -7.40057        -7.40057        -7.40057        -7.40057        -7.40057        -7.40057        -7.40057        -7.40057        -7.40057        -7.40057  
      -7.40057        -7.40057        -7.40057        -7.40057        -7.40057        -7.40057        -7.40057        -7.40057        -7.40057        -7.40057  
      -7.40057        -7.40057        -7.40057        -7.40057        -7.40057        -7.40057        -7.40057        -7.40057        -7.06055        -7.06055  
      -7.06055        -7.06055        -7.06055        -7.06055        -7.06055        -7.06055        -7.06055        -7.06055        -7.06055        -7.06055  
      -7.06055        -7.06055        -7.06055        -7.06055        -7.06055        -7.06055        -7.06055        -7.06055        -7.06055        -7.06055  
      -7.06055        -7.06055        -7.06055        -7.06055        -7.06055        -7.06055        -6.72053        -6.72053        -6.72053        -6.72053  
      -6.72053        -6.72053        -6.72053        -6.72053        -6.72053        -6.72053        -6.72053        -6.72053        -6.72053        -6.72053  
      -6.72053        -6.72053        -6.72053        -6.72053        -6.72053        -6.72053        -6.72053        -6.72053        -6.72053        -6.72053  
      -6.72053        -6.72053        -6.72053        -6.72053        -6.38051        -6.38051        -6.38051        -6.38051        -6.38051        -6.38051  
      -6.38051        -6.38051        -6.38051        -6.38051        -6.38051        -6.38051        -6.38051        -6.38051        -6.38051        -6.38051  
      -6.38051        -6.38051        -6.38051        -6.38051        -6.38051        -6.38051        -6.38051        -6.38051        -6.38051        -6.38051  
      -6.38051        -6.38051        -6.04049        -6.04049        -6.04049        -6.04049        -6.04049        -6.04049        -6.04049        -6.04049  
      -6.04049        -6.04049        -6.04049        -6.04049        -6.04049        -6.04049        -6.04049        -6.04049        -6.04049        -6.04049  
      -6.04049        -6.04049        -6.04049        -6.04049        -6.04049        -6.04049        -6.04049        -6.04049        -6.04049        -6.04049  
      -5.70047        -5.70047        -5.70047        -5.70047        -5.70047        -5.70047        -5.70047        -5.70047        -5.70047        -5.70047  
      -5.70047        -5.70047        -5.70047        -5.70047        -5.70047        -5.70047        -5.70047        -5.70047        -5.70047        -5.70047  
      -5.70047        -5.70047        -5.70047        -5.70047        -5.70047        -5.70047        -5.70047        -5.70047        -5.36045        -5.36045  
      -5.36045        -5.36045        -5.36045        -5.36045        -5.36045        -5.36045        -5.36045        -5.36045        -5.36045        -5.36045  
      -5.36045        -5.36045        -5.36045        -5.36045        -5.36045        -5.36045        -5.36045        -5.36045        -5.36045        -5.36045  
      -5.36045        -5.36045        -5.36045        -5.36045        -5.36045        -5.36045        -5.02043        -5.02043        -5.02043        -5.02043  
      -5.02043        -5.02043        -5.02043        -5.02043        -5.02043        -5.02043        -5.02043        -5.02043        -5.02043        -5.02043  
      -5.02043        -5.02043        -5.02043        -5.02043        -5.02043        -5.02043        -5.02043        -5.02043        -5.02043        -5.02043  
      -5.02043        -5.02043        -5.02043        -5.02043        -4.68041        -4.68041        -4.68041        -4.68041        -4.68041        -4.68041  
      -4.68041        -4.68041        -4.68041        -4.68041        -4.68041        -4.68041        -4.68041        -4.68041        -4.68041        -4.68041  
      -4.68041        -4.68041        -4.68041        -4.68041        -4.68041        -4.68041        -4.68041        -4.68041        -4.68041        -4.68041  
      -4.68041        -4.68041        -4.34039        -4.34039        -4.34039        -4.34039        -4.34039        -4.34039        -4.34039        -4.34039  
      -4.34039        -4.34039        -4.34039        -4.34039        -4.34039        -4.34039        -4.34039        -4.34039        -4.34039        -4.34039  
      -4.34039        -4.34039        -4.34039        -4.34039        -4.34039        -4.34039        -4.34039        -4.34039        -4.34039        -4.34039  
      -4.00036        -4.00036        -4.00036        -4.00036        -4.00036        -4.00036        -4.00036        -4.00036        -4.00036        -4.00036  
      -4.00036        -4.00036        -4.00036        -4.00036        -4.00036        -4.00036        -4.00036        -4.00036        -4.00036        -4.00036  
      -4.00036        -4.00036        -4.00036        -4.00036        -4.00036        -4.00036        -4.00036        -4.00036        -3.66034        -3.66034  
      -3.66034        -3.66034        -3.66034        -3.66034        -3.66034        -3.66034        -3.66034        -3.66034        -3.66034        -3.66034  
      -3.66034        -3.66034        -3.66034        -3.66034        -3.66034        -3.66034        -3.66034        -3.66034        -3.66034        -3.66034  
      -3.66034        -3.66034        -3.66034        -3.66034        -3.66034        -3.66034  
# Z
             2         1.99735         1.99361         1.98982         1.98608         1.98249         1.97938         1.97682         1.97431         1.97198  
       1.96966         1.96763         1.96581         1.96385         1.96178         1.95997         1.95814         1.95631         1.95476         1.95329  
       1.95153         1.94978         1.94814         1.94655         1.94512          1.9439         1.94274         1.94198               2          1.9972  
       1.99325         1.98924         1.98528         1.98149          1.9782         1.97549         1.97284         1.97037         1.96791         1.96577  
       1.96384         1.96176         1.95956         1.95764          1.9557         1.95375          1.9521         1.95054         1.94867         1.94682  
       1.94507         1.94338         1.94185         1.94054         1.93931         1.93849               2         1.99705         1.99289         1.98866  
       1.98449          1.9805         1.97702         1.97417         1.97137         1.96876         1.96617          1.9639         1.96186         1.95966  
       1.95734         1.95531         1.95325         1.95119         1.94945          1.9478         1.94581         1.94385           1.942          1.9402  
       1.93857         1.93719         1.93588           1.935               2          1.9969         1.99253         1.98808          1.9837          1.9795  
       1.97585         1.97284         1.96989         1.96715         1.96442         1.96203         1.95988         1.95757         1.95512         1.95298  
       1.95081         1.94864         1.94679         1.94505         1.94295         1.94088         1.93892         1.93702          1.9353         1.93383  
       1.93244          1.9315               2         1.99675         1.99216          1.9875         1.98291          1.9785         1.97467         1.97151  
       1.96842         1.96554         1.96267         1.96017         1.95791         1.95547          1.9529         1.95065         1.94837         1.94608  
       1.94414          1.9423         1.94009         1.93791         1.93585         1.93385         1.93203         1.93048         1.92901         1.92801  
             2          1.9966          1.9918         1.98693         1.98211          1.9775         1.97349         1.97019         1.96695         1.96393  
       1.96093          1.9583         1.95593         1.95338         1.95068         1.94832         1.94592         1.94352         1.94148         1.93955  
       1.93723         1.93494         1.93277         1.93067         1.92876         1.92713         1.92558         1.92452               2         1.99645  
       1.99144         1.98635         1.98132          1.9765         1.97232         1.96886         1.96548         1.96232         1.95918         1.95643  
       1.95395         1.95128         1.94846         1.94599         1.94348         1.94097         1.93883          1.9368         1.93437         1.93197  
        1.9297         1.92749         1.92549         1.92377         1.92215         1.92103               2          1.9963         1.99108         1.98577  
       1.98053         1.97551         1.97114         1.96754           1.964         1.96071         1.95743         1.95457         1.95198         1.94919  
       1.94624         1.94366         1.94103         1.93841         1.93617         1.93406         1.93151           1.929         1.92663         1.92432  
       1.92222         1.92042         1.91871         1.91754               2         1.99615         1.99072         1.98519         1.97974         1.97451  
       1.96996         1.96621         1.96253          1.9591         1.95569          1.9527            1.95          1.9471         1.94402         1.94133  
       1.93859         1.93585         1.93352         1.93131         1.92866         1.92603         1.92355         1.92114         1.91895         1.91707  
       1.91528         1.91405               2           1.996         1.99035         1.98461         1.97894         1.97351         1.96878         1.96488  
       1.96106         1.95749         1.95394         1.95083         1.94802           1.945          1.9418           1.939         1.93615          1.9333  
       1.93086         1.92856          1.9258         1.92306         1.92048         1.91796         1.91568         1.91371         1.91185         1.91056  
             2         1.99585         1.98999         1.98403         1.97815         1.97251         1.96761         1.96356         1.95959         1.95588  
        1.9522         1.94897         1.94605         1.94291         1.93958         1.93667          1.9337         1.93074         1.92821         1.92581  
       1.92294         1.92009          1.9174         1.91479         1.91241         1.91036         1.90841         1.90707               2          1.9957  
       1.98963         1.98345         1.97736         1.97152         1.96643         1.96223         1.95812         1.95427         1.95045          1.9471  
       1.94407         1.94081         1.93736         1.93434         1.93126         1.92818         1.92556         1.92306         1.92008         1.91712  
       1.91433         1.91161         1.90914         1.90701         1.90498         1.90358               2         1.99555         1.98927         1.98288  
       1.97657         1.97052         1.96525         1.96091         1.95664         1.95266          1.9487         1.94523         1.94209         1.93872  
       1.93514         1.93201         1.92882         1.92563          1.9229         1.92032         1.91722         1.91415         1.91126         1.90843  
       1.90587         1.90365         1.90155         1.90009               2          1.9954          1.9889          1.9823         1.97578         1.96952  
       1.96408         1.95958         1.95517         1.95105         1.94696         1.94337         1.94012         1.93662         1.93292         1.92968  
       1.92637         1.92307         1.92025         1.91757         1.91436         1.91119         1.90818         1.90526         1.90259          1.9003  
       1.89812          1.8966               2         1.99525         1.98854         1.98172         1.97498         1.96852          1.9629         1.95825  
        1.9537         1.94945         1.94521          1.9415         1.93814         1.93453          1.9307         1.92734         1.92393         1.92051  
       1.91759         1.91482          1.9115         1.90822         1.90511         1.90208         1.89932         1.89695         1.89468         1.89311  
             2          1.9951         1.98818         1.98114         1.97419         1.96752         1.96172         1.95693         1.95223         1.94784  
       1.94347         1.93963         1.93617         1.93243         1.92848         1.92501         1.92149         1.91796         1.91494         1.91207  
       1.90864         1.90525         1.90203          1.8989         1.89605         1.89359         1.89125         1.88962               2         1.99495  
       1.98782         1.98056          1.9734         1.96653         1.96054          1.9556         1.95075         1.94623         1.94172         1.93776  
       1.93419         1.93034         1.92626         1.92268         1.91904          1.9154         1.91228         1.90932         1.90578         1.90228  
       1.89896         1.89573         1.89278         1.89024         1.88782         1.88613               2          1.9948         1.98745         1.97998  
       1.97261         1.96553         1.95937         1.95428         1.94928         1.94462         1.93997          1.9359         1.93221         1.92824  
       1.92404         1.92035          1.9166         1.91284         1.90963         1.90658         1.90293         1.89931         1.89589         1.89255  
       1.88951         1.88689         1.88439         1.88264               2         1.99465         1.98709          1.9794         1.97181         1.96453  
       1.95819         1.95295         1.94781         1.94301         1.93823         1.93403         1.93024         1.92615         1.92182         1.91802  
       1.91416         1.91029         1.90697         1.90383         1.90007         1.89634         1.89281         1.88937         1.88624         1.88353  
       1.88095         1.87915               2          1.9945         1.98673         1.97883         1.97102         1.96353         1.95701         1.95163  
       1.94634          1.9414         1.93648         1.93216         1.92826         1.92405          1.9196         1.91569         1.91171         1.90773  
       1.90432         1.90108         1.89721         1.89337         1.88974          1.8862         1.88297         1.88018         1.87752         1.87566  
             2         1.99435         1.98637         1.97825         1.97023         1.96254         1.95584          1.9503         1.94487         1.93979  
       1.93474          1.9303         1.92628         1.92196         1.91738         1.91336         1.90927         1.90517         1.90166         1.89833  
       1.89435          1.8904         1.88666         1.88302          1.8797         1.87683         1.87409         1.87217               2          1.9942  
         1.986         1.97767         1.96944         1.96154         1.95466         1.94897         1.94339         1.93818         1.93299         1.92843  