TITLE     = "AircraftModel"
VARIABLES = "X",
            "Y",
            "Z"


ZONE
T           = "wing_segment_from_wing_section_1_element_1_to_wing_section_2_element_1_symm; Col:1; Row:1; CS:0; Side:Lower"
I           = 28
J           = 25
DATAPACKING = BLOCK
ZONETYPE    = ORDERED
VARLOCATION = (NODAL, NODAL, NODAL)
AUXDATA CS  = ""
# X
        8.4945         8.49483         8.49564         8.49691         8.49861         8.50075          8.5033         8.50627         8.50968          8.5135  
       8.51775         8.52242         8.52749         8.53298         8.53889         8.54518         8.55188         8.55896         8.56642         8.57425  
       8.58246         8.59102         8.59994          8.6092         8.61879          8.6287         8.63891         8.64942         8.45931         8.45967  
       8.46059         8.46203         8.46398         8.46643         8.46937          8.4728         8.47673         8.48115         8.48607         8.49146  
       8.49733         8.50369         8.51053         8.51782         8.52557         8.53378         8.54242         8.55149           8.561         8.57093  
       8.58126           8.592         8.60311         8.61459         8.62644         8.63863         8.42412         8.42452         8.42554         8.42715  
       8.42935         8.43212         8.43545         8.43933         8.44379          8.4488         8.45438         8.46051         8.46718          8.4744  
       8.48217         8.49046         8.49927          8.5086         8.51842         8.52873         8.53955         8.55084         8.56259         8.57479  
       8.58743         8.60049         8.61396         8.62783         8.38894         8.38937         8.39049         8.39228         8.39472          8.3978  
       8.40152         8.40586         8.41084         8.41645          8.4227         8.42956         8.43703         8.44511         8.45381         8.46309  
       8.47296         8.48341         8.49442         8.50598         8.51809         8.53074         8.54391         8.55758         8.57175         8.58639  
       8.60149         8.61703         8.35375         8.35421         8.35544          8.3574         8.36008         8.36349         8.36759         8.37239  
        8.3779          8.3841         8.39101          8.3986         8.40687         8.41583         8.42545         8.43573         8.44666         8.45823  
       8.47042         8.48322         8.49664         8.51065         8.52523         8.54038         8.55607         8.57228         8.58901         8.60623  
       8.31856         8.31906         8.32039         8.32252         8.32545         8.32917         8.33366         8.33892         8.34495         8.35175  
       8.35933         8.36765         8.37672         8.38654         8.39709         8.40837         8.42036         8.43305         8.44642         8.46046  
       8.47518         8.49055         8.50655         8.52317         8.54038         8.55818         8.57654         8.59544         8.28337          8.2839  
       8.28534         8.28765         8.29082         8.29485         8.29973         8.30544         8.31201         8.31941         8.32764          8.3367  
       8.34656         8.35725         8.36874           8.381         8.39405         8.40786         8.42242         8.43771         8.45373         8.47046  
       8.48787         8.50596          8.5247         8.54407         8.56406         8.58464         8.24819         8.24875         8.25029         8.25277  
       8.25619         8.26054          8.2658         8.27197         8.27906         8.28706         8.29596         8.30574         8.31641         8.32796  
       8.34038         8.35364         8.36775         8.38268         8.39842         8.41495         8.43227         8.45036          8.4692         8.48876  
       8.50902         8.52997         8.55159         8.57384           8.213         8.21359         8.21524         8.21789         8.22156         8.22622  
       8.23187          8.2385         8.24612         8.25471         8.26427         8.27479         8.28626         8.29867         8.31202         8.32628  
       8.34144          8.3575         8.37442         8.39219         8.41082         8.43027         8.45052         8.47155         8.49334         8.51587  
       8.53911         8.56305         8.17781         8.17844         8.18019         8.18302         8.18693         8.19191         8.19794         8.20503  
       8.21317         8.22236         8.23258         8.24384          8.2561         8.26938         8.28366         8.29892         8.31514         8.33232  
       8.35042         8.36944         8.38937         8.41017         8.43184         8.45434         8.47766         8.50176         8.52664         8.55225  
       8.14262         8.14329         8.14514         8.14814          8.1523         8.15759         8.16402         8.17156         8.18022         8.19001  
        8.2009         8.21288         8.22595         8.24009          8.2553         8.27155         8.28884         8.30713         8.32642         8.34668  
       8.36791         8.39008         8.41316         8.43714         8.46198         8.48766         8.51416         8.54145         8.10744         8.10813  
       8.11009         8.11327         8.11767         8.12328         8.13009         8.13809         8.14728         8.15766         8.16921         8.18193  
       8.19579          8.2108         8.22695         8.24419         8.26253         8.28195         8.30242         8.32392         8.34646         8.36999  
       8.39448         8.41993          8.4463         8.47356         8.50169         8.53065         8.07225         8.07298         8.07503         8.07839  
       8.08303         8.08896         8.09616         8.10461         8.11433         8.12531         8.13753         8.15098         8.16564         8.18151  
       8.19859         8.21683         8.23623         8.25677         8.27842         8.30117           8.325         8.34989         8.37581         8.40272  
       8.43062         8.45945         8.48921         8.51986         8.03706         8.03782         8.03998         8.04351          8.0484         8.05465  
       8.06223         8.07114         8.08139         8.09296         8.10584         8.12002         8.13548         8.15223         8.17023         8.18946  
       8.20992         8.23159         8.25442         8.27841         8.30355          8.3298         8.35713         8.38552         8.41494         8.44535  
       8.47674         8.50906         8.00187         8.00267         8.00493         8.00864         8.01377         8.02033          8.0283         8.03767  
       8.04844         8.06061         8.07416         8.08907         8.10533         8.12294         8.14187          8.1621         8.18362          8.2064  
       8.23042         8.25566         8.28209          8.3097         8.33845         8.36831         8.39925         8.43125         8.46426         8.49826  
       7.96669         7.96751         7.96988         7.97376         7.97914         7.98602         7.99437          8.0042          8.0155         8.02826  
       8.04247         8.05812         8.07518         8.09365         8.11351         8.13474         8.15732         8.18122         8.20642          8.2329  
       8.26064         8.28961         8.31977          8.3511         8.38357         8.41714         8.45179         8.48747          7.9315         7.93236  
       7.93483         7.93888         7.94451          7.9517         7.96044         7.97073         7.98255         7.99591         8.01079         8.02716  
       8.04502         8.06436         8.08515         8.10738         8.13101         8.15604         8.18242         8.21014         8.23919         8.26951  
       8.30109          8.3339         8.36789         8.40304         8.43931         8.47667         7.89631         7.89721         7.89978         7.90401  
       7.90988         7.91739         7.92652         7.93726         7.94961         7.96356          7.9791         7.99621         8.01487         8.03507  
        8.0568         8.08001         8.10471         8.13085         8.15842         8.18739         8.21773         8.24942         8.28242         8.31669  
       8.35221         8.38894         8.42684         8.46587         7.86112         7.86205         7.86473         7.86913         7.87525         7.88307  
       7.89259         7.90378         7.91666         7.93121         7.94742         7.96526         7.98471         8.00578         8.02844         8.05265  
        8.0784         8.10567         8.13442         8.16463         8.19628         8.22932         8.26374         8.29948         8.33653         8.37483  
       8.41436         8.45507         7.82594          7.8269         7.82968         7.83425         7.84061         7.84875         7.85866         7.87031  
       7.88372         7.89886         7.91573          7.9343         7.95456         7.97649         8.00008         8.02529          8.0521         8.08049  
       8.11042         8.14187         8.17482         8.20923         8.24506         8.28228         8.32085         8.36073         8.40189         8.44428  
       7.79075         7.79174         7.79463         7.79938         7.80598         7.81444         7.82473         7.83684         7.85077         7.86651  
       7.88405         7.90335         7.92441          7.9472         7.97172         7.99792          8.0258         8.05531         8.08642         8.11912  
       8.15337         8.18913         8.22638         8.26507         8.30517         8.34663         8.38941         8.43348         7.75556         7.75659  
       7.75958          7.7645         7.77135         7.78012          7.7908         7.80337         7.81783         7.83416         7.85236          7.8724  
       7.89425         7.91792         7.94336         7.97056         7.99949         8.03012         8.06242         8.09636         8.13191         8.16904  
        8.2077         8.24787         8.28949         8.33252         8.37694         8.42268         7.72037         7.72143         7.72453         7.72962  
       7.73672         7.74581         7.75687          7.7699         7.78488         7.80181         7.82067         7.84144          7.8641         7.88863  
         7.915          7.9432         7.97319         8.00494         8.03842          8.0736         8.11046         8.14895         8.18903         8.23066  
        8.2738         8.31842         8.36446         8.41188         7.68519         7.68628         7.68948         7.69475         7.70209         7.71149  
       7.72294         7.73643         7.75194         7.76946         7.78899         7.81049         7.83394         7.85934         7.88665         7.91584  
       7.94688         7.97976         8.01442         8.05085           8.089         8.12885         8.17035         8.21345         8.25812         8.30432  
       8.35199         8.40109            7.65         7.65113         7.65442         7.65987         7.66746         7.67718         7.68901         7.70295  
       7.71899         7.73711          7.7573         7.77953         7.80379         7.83005         7.85829         7.88847         7.92058         7.95457  
       7.99042         8.02809         8.06755         8.10876         8.15167         8.19625         8.24244         8.29021         8.33951         8.39029  
# Y
      -14.6814        -14.6814        -14.6814        -14.6814        -14.6814        -14.6814        -14.6814        -14.6814        -14.6814        -14.6814  
      -14.6814        -14.6814        -14.6814        -14.6814        -14.6814        -14.6814        -14.6814        -14.6814        -14.6814        -14.6814  
      -14.6814        -14.6814        -14.6814        -14.6814        -14.6814        -14.6814        -14.6814        -14.6814        -14.2222        -14.2222  
      -14.2222        -14.2222        -14.2222        -14.2222        -14.2222        -14.2222        -14.2222        -14.2222        -14.2222        -14.2222  
      -14.2222        -14.2222        -14.2222        -14.2222        -14.2222        -14.2222        -14.2222        -14.2222        -14.2222        -14.2222  
      -14.2222        -14.2222        -14.2222        -14.2222        -14.2222        -14.2222         -13.763         -13.763         -13.763         -13.763  
       -13.763         -13.763         -13.763         -13.763         -13.763         -13.763         -13.763         -13.763         -13.763         -13.763  
       -13.763         -13.763         -13.763         -13.763         -13.763         -13.763         -13.763         -13.763         -13.763         -13.763  
       -13.763         -13.763         -13.763         -13.763        -13.3038        -13.3038        -13.3038        -13.3038        -13.3038        -13.3038  
      -13.3038        -13.3038        -13.3038        -13.3038        -13.3038        -13.3038        -13.3038        -13.3038        -13.3038        -13.3038  
      -13.3038        -13.3038        -13.3038        -13.3038        -13.3038        -13.3038        -13.3038        -13.3038        -13.3038        -13.3038  
      -13.3038        -13.3038        -12.8445        -12.8445        -12.8445        -12.8445        -12.8445        -12.8445        -12.8445        -12.8445  
      -12.8445        -12.8445        -12.8445        -12.8445        -12.8445        -12.8445        -12.8445        -12.8445        -12.8445        -12.8445  
      -12.8445        -12.8445        -12.8445        -12.8445        -12.8445        -12.8445        -12.8445        -12.8445        -12.8445        -12.8445  
      -12.3853        -12.3853        -12.3853        -12.3853        -12.3853        -12.3853        -12.3853        -12.3853        -12.3853        -12.3853  
      -12.3853        -12.3853        -12.3853        -12.3853        -12.3853        -12.3853        -12.3853        -12.3853        -12.3853        -12.3853  
      -12.3853        -12.3853        -12.3853        -12.3853        -12.3853        -12.3853        -12.3853        -12.3853        -11.9261        -11.9261  
      -11.9261        -11.9261        -11.9261        -11.9261        -11.9261        -11.9261        -11.9261        -11.9261        -11.9261        -11.9261  
      -11.9261        -11.9261        -11.9261        -11.9261        -11.9261        -11.9261        -11.9261        -11.9261        -11.9261        -11.9261  
      -11.9261        -11.9261        -11.9261        -11.9261        -11.9261        -11.9261        -11.4669        -11.4669        -11.4669        -11.4669  
      -11.4669        -11.4669        -11.4669        -11.4669        -11.4669        -11.4669        -11.4669        -11.4669        -11.4669        -11.4669  
      -11.4669        -11.4669        -11.4669        -11.4669        -11.4669        -11.4669        -11.4669        -11.4669        -11.4669        -11.4669  
      -11.4669        -11.4669        -11.4669        -11.4669        -11.0077        -11.0077        -11.0077        -11.0077        -11.0077        -11.0077  
      -11.0077        -11.0077        -11.0077        -11.0077        -11.0077        -11.0077        -11.0077        -11.0077        -11.0077        -11.0077  
      -11.0077        -11.0077        -11.0077        -11.0077        -11.0077        -11.0077        -11.0077        -11.0077        -11.0077        -11.0077  
      -11.0077        -11.0077        -10.5485        -10.5485        -10.5485        -10.5485        -10.5485        -10.5485        -10.5485        -10.5485  
      -10.5485        -10.5485        -10.5485        -10.5485        -10.5485        -10.5485        -10.5485        -10.5485        -10.5485        -10.5485  
      -10.5485        -10.5485        -10.5485        -10.5485        -10.5485        -10.5485        -10.5485        -10.5485        -10.5485        -10.5485  
      -10.0893        -10.0893        -10.0893        -10.0893        -10.0893        -10.0893        -10.0893        -10.0893        -10.0893        -10.0893  
      -10.0893        -10.0893        -10.0893        -10.0893        -10.0893        -10.0893        -10.0893        -10.0893        -10.0893        -10.0893  
      -10.0893        -10.0893        -10.0893        -10.0893        -10.0893        -10.0893        -10.0893        -10.0893        -9.63007        -9.63007  
      -9.63007        -9.63007        -9.63007        -9.63007        -9.63007        -9.63007        -9.63007        -9.63007        -9.63007        -9.63007  
      -9.63007        -9.63007        -9.63007        -9.63007        -9.63007        -9.63007        -9.63007        -9.63007        -9.63007        -9.63007  
      -9.63007        -9.63007        -9.63007        -9.63007        -9.63007        -9.63007        -9.17086        -9.17086        -9.17086        -9.17086  
      -9.17086        -9.17086        -9.17086        -9.17086        -9.17086        -9.17086        -9.17086        -9.17086        -9.17086        -9.17086  
      -9.17086        -9.17086        -9.17086        -9.17086        -9.17086        -9.17086        -9.17086        -9.17086        -9.17086        -9.17086  
      -9.17086        -9.17086        -9.17086        -9.17086        -8.71165        -8.71165        -8.71165        -8.71165        -8.71165        -8.71165  
      -8.71165        -8.71165        -8.71165        -8.71165        -8.71165        -8.71165        -8.71165        -8.71165        -8.71165        -8.71165  
      -8.71165        -8.71165        -8.71165        -8.71165        -8.71165        -8.71165        -8.71165        -8.71165        -8.71165        -8.71165  
      -8.71165        -8.71165        -8.25244        -8.25244        -8.25244        -8.25244        -8.25244        -8.25244        -8.25244        -8.25244  
      -8.25244        -8.25244        -8.25244        -8.25244        -8.25244        -8.25244        -8.25244        -8.25244        -8.25244        -8.25244  
      -8.25244        -8.25244        -8.25244        -8.25244        -8.25244        -8.25244        -8.25244        -8.25244        -8.25244        -8.25244  
      -7.79323        -7.79323        -7.79323        -7.79323        -7.79323        -7.79323        -7.79323        -7.79323        -7.79323        -7.79323  
      -7.79323        -7.79323        -7.79323        -7.79323        -7.79323        -7.79323        -7.79323        -7.79323        -7.79323        -7.79323  
      -7.79323        -7.79323        -7.79323        -7.79323        -7.79323        -7.79323        -7.79323        -7.79323        -7.33402        -7.33402  
      -7.33402        -7.33402        -7.33402        -7.33402        -7.33402        -7.33402        -7.33402        -7.33402        -7.33402        -7.33402  
      -7.33402        -7.33402        -7.33402        -7.33402        -7.33402        -7.33402        -7.33402        -7.33402        -7.33402        -7.33402  
      -7.33402        -7.33402        -7.33402        -7.33402        -7.33402        -7.33402        -6.87481        -6.87481        -6.87481        -6.87481  
      -6.87481        -6.87481        -6.87481        -6.87481        -6.87481        -6.87481        -6.87481        -6.87481        -6.87481        -6.87481  
      -6.87481        -6.87481        -6.87481        -6.87481        -6.87481        -6.87481        -6.87481        -6.87481        -6.87481        -6.87481  
      -6.87481        -6.87481        -6.87481        -6.87481         -6.4156         -6.4156         -6.4156         -6.4156         -6.4156         -6.4156  
       -6.4156         -6.4156         -6.4156         -6.4156         -6.4156         -6.4156         -6.4156         -6.4156         -6.4156         -6.4156  
       -6.4156         -6.4156         -6.4156         -6.4156         -6.4156         -6.4156         -6.4156         -6.4156         -6.4156         -6.4156  
       -6.4156         -6.4156        -5.95639        -5.95639        -5.95639        -5.95639        -5.95639        -5.95639        -5.95639        -5.95639  
      -5.95639        -5.95639        -5.95639        -5.95639        -5.95639        -5.95639        -5.95639        -5.95639        -5.95639        -5.95639  
      -5.95639        -5.95639        -5.95639        -5.95639        -5.95639        -5.95639        -5.95639        -5.95639        -5.95639        -5.95639  
      -5.49718        -5.49718        -5.49718        -5.49718        -5.49718        -5.49718        -5.49718        -5.49718        -5.49718        -5.49718  
      -5.49718        -5.49718        -5.49718        -5.49718        -5.49718        -5.49718        -5.49718        -5.49718        -5.49718        -5.49718  
      -5.49718        -5.49718        -5.49718        -5.49718        -5.49718        -5.49718        -5.49718        -5.49718        -5.03797        -5.03797  
      -5.03797        -5.03797        -5.03797        -5.03797        -5.03797        -5.03797        -5.03797        -5.03797        -5.03797        -5.03797  
      -5.03797        -5.03797        -5.03797        -5.03797        -5.03797        -5.03797        -5.03797        -5.03797        -5.03797        -5.03797  
      -5.03797        -5.03797        -5.03797        -5.03797        -5.03797        -5.03797        -4.57876        -4.57876        -4.57876        -4.57876  
      -4.57876        -4.57876        -4.57876        -4.57876        -4.57876        -4.57876        -4.57876        -4.57876        -4.57876        -4.57876  
      -4.57876        -4.57876        -4.57876        -4.57876        -4.57876        -4.57876        -4.57876        -4.57876        -4.57876        -4.57876  
      -4.57876        -4.57876        -4.57876        -4.57876        -4.11955        -4.11955        -4.11955        -4.11955        -4.11955        -4.11955  
      -4.11955        -4.11955        -4.11955        -4.11955        -4.11955        -4.11955        -4.11955        -4.11955        -4.11955        -4.11955  
      -4.11955        -4.11955        -4.11955        -4.11955        -4.11955        -4.11955        -4.11955        -4.11955        -4.11955        -4.11955  
      -4.11955        -4.11955        -3.66034        -3.66034        -3.66034        -3.66034        -3.66034        -3.66034        -3.66034        -3.66034  
      -3.66034        -3.66034        -3.66034        -3.66034        -3.66034        -3.66034        -3.66034        -3.66034        -3.66034        -3.66034  
      -3.66034        -3.66034        -3.66034        -3.66034        -3.66034        -3.66034        -3.66034        -3.66034        -3.66034        -3.66034  
# Z
             2         1.99735         1.99362         1.98984         1.98611         1.98254         1.97944         1.97691         1.97442         1.97212  
       1.96984         1.96785         1.96607         1.96415         1.96212         1.96037         1.95858         1.95681         1.95531         1.95391  
       1.95221         1.95053         1.94896         1.94745         1.94608         1.94494         1.94387         1.94318               2         1.99722  
        1.9933         1.98933         1.98541         1.98166         1.97841         1.97574         1.97313         1.97071          1.9683         1.96621  
       1.96433         1.96231         1.96017         1.95831         1.95643         1.95455         1.95297         1.95148         1.94968         1.94791  
       1.94624         1.94463         1.94318         1.94196         1.94082         1.94008               2         1.99709         1.99299         1.98882  
       1.98472         1.98079         1.97738         1.97458         1.97184         1.96929         1.96676         1.96456         1.96259         1.96046  
       1.95821         1.95625         1.95427         1.95229         1.95062         1.94905         1.94715         1.94528         1.94352         1.94181  
       1.94028         1.93898         1.93777         1.93698               2         1.99696         1.99267         1.98831         1.98402         1.97991  
       1.97635         1.97341         1.97055         1.96788         1.96523         1.96292         1.96085         1.95861         1.95625          1.9542  
       1.95211         1.95003         1.94828         1.94662         1.94462         1.94265         1.94079           1.939         1.93738         1.93601  
       1.93472         1.93387               2         1.99683         1.99235         1.98781         1.98333         1.97904         1.97531         1.97225  
       1.96925         1.96646         1.96369         1.96128         1.95911         1.95677          1.9543         1.95214         1.94996         1.94777  
       1.94593         1.94419         1.94209         1.94002         1.93807         1.93618         1.93447         1.93303         1.93166         1.93077  
             2          1.9967         1.99204          1.9873         1.98263         1.97816         1.97428         1.97109         1.96796         1.96505  
       1.96216         1.95964         1.95737         1.95492         1.95234         1.95009          1.9478         1.94552         1.94358         1.94176  
       1.93956         1.93739         1.93534         1.93336         1.93157         1.93005         1.92861         1.92766               2         1.99657  
       1.99172         1.98679         1.98194         1.97729         1.97325         1.96992         1.96667         1.96364         1.96062         1.95799  
       1.95563         1.95308         1.95038         1.94803         1.94564         1.94326         1.94124         1.93933         1.93703         1.93476  
       1.93262         1.93055         1.92867         1.92707         1.92556         1.92456               2         1.99643          1.9914         1.98629  
       1.98124         1.97641         1.97221         1.96876         1.96537         1.96222         1.95909         1.95635         1.95389         1.95123  
       1.94843         1.94598         1.94349           1.941         1.93889          1.9369          1.9345         1.93213          1.9299         1.92773  
       1.92577          1.9241         1.92251         1.92145               2          1.9963         1.99108         1.98578         1.98055         1.97554  
       1.97118         1.96759         1.96408         1.96081         1.95755         1.95471         1.95215         1.94939         1.94647         1.94392  
       1.94133         1.93874         1.93655         1.93447         1.93197          1.9295         1.92717         1.92491         1.92287         1.92112  
       1.91946         1.91835               2         1.99617         1.99077         1.98527         1.97985         1.97466         1.97015         1.96643  
       1.96279         1.95939         1.95602         1.95307         1.95041         1.94754         1.94451         1.94186         1.93917         1.93648  
        1.9342         1.93204         1.92944         1.92687         1.92445         1.92209         1.91996         1.91814         1.91641         1.91525  
             2         1.99604         1.99045         1.98477         1.97916         1.97379         1.96912         1.96527          1.9615         1.95798  
       1.95448         1.95142         1.94867          1.9457         1.94256         1.93981         1.93702         1.93423         1.93185         1.92961  
       1.92691         1.92424         1.92172         1.91928         1.91706         1.91516         1.91336         1.91214               2         1.99591  
       1.99013         1.98426         1.97847         1.97291         1.96808          1.9641          1.9602         1.95656         1.95295         1.94978  
       1.94693         1.94385          1.9406         1.93775         1.93486         1.93197         1.92951         1.92718         1.92438         1.92161  
         1.919         1.91646         1.91416         1.91218         1.91031         1.90904               2         1.99578         1.98981         1.98375  
       1.97777         1.97204         1.96705         1.96294         1.95891         1.95515         1.95141         1.94814         1.94519         1.94201  
       1.93864          1.9357          1.9327         1.92971         1.92716         1.92475         1.92185         1.91898         1.91628         1.91364  
       1.91126         1.90921         1.90726         1.90593               2         1.99565          1.9895         1.98325         1.97708         1.97116  
       1.96602         1.96178         1.95762         1.95374         1.94988          1.9465         1.94345         1.94016         1.93669         1.93364  
       1.93055         1.92745         1.92482         1.92232         1.91932         1.91635         1.91355         1.91083         1.90835         1.90623  
       1.90421         1.90283               2         1.99551         1.98918         1.98274         1.97638         1.97029         1.96499         1.96061  
       1.95632         1.95232         1.94834         1.94485         1.94171         1.93832         1.93473         1.93159         1.92839         1.92519  
       1.92247         1.91989         1.91679         1.91372         1.91083         1.90801         1.90545         1.90325         1.90116         1.89972  
             2         1.99538         1.98886         1.98223         1.97569         1.96941         1.96395         1.95945         1.95503         1.95091  
       1.94681         1.94321         1.93997         1.93647         1.93277         1.92953         1.92623         1.92294         1.92012         1.91746  