  TITLE = "Geometry of the configuration"
  VARIABLES = "X","Y","Z"
 
   ZONE T="INPUT-PANEL-IGES=   1-IFLUE=   1", N=    12, E=    3, ET=QUADRILATERAL, F=FEPOINT
   0.1065000E+02   0.1800000E+02   0.1999917E+01
   0.1065332E+02   0.1800000E+02   0.2000197E+01
   0.1056268E+02   0.1742641E+02   0.2002113E+01
   0.1053003E+02   0.1742641E+02   0.1999365E+01
   0.1065338E+02   0.1800000E+02   0.1999666E+01
   0.1065654E+02   0.1800000E+02   0.2000734E+01
   0.1059423E+02   0.1742641E+02   0.2008127E+01
   0.1056319E+02   0.1742641E+02   0.1997635E+01
   0.1065708E+02   0.1800000E+02   0.2000601E+01
   0.1065875E+02   0.1800000E+02   0.1997712E+01
   0.1061597E+02   0.1742639E+02   0.1979163E+01
   0.1059964E+02   0.1742642E+02   0.2007566E+01
       1       2       3       4
       5       6       7       8
       9      10      11      12
 
   ZONE T="INPUT-PANEL-IGES=   1-IFLUE=   2", N=    12, E=    3, ET=QUADRILATERAL, F=FEPOINT
   0.1053001E+02   0.1742641E+02   0.1999725E+01
   0.1056274E+02   0.1742641E+02   0.2001032E+01
   0.1047216E+02   0.1685283E+02   0.2001977E+01
   0.1041001E+02   0.1685283E+02   0.1999497E+01
   0.1056289E+02   0.1742641E+02   0.1998782E+01
   0.1059512E+02   0.1742641E+02   0.2004687E+01
   0.1053362E+02   0.1685283E+02   0.2008990E+01
   0.1047245E+02   0.1685283E+02   0.1997781E+01
   0.1059805E+02   0.1742642E+02   0.2006380E+01
   0.1062072E+02   0.1742639E+02   0.1982720E+01
   0.1058220E+02   0.1685280E+02   0.1967366E+01
   0.1053917E+02   0.1685284E+02   0.2012278E+01
       1       2       3       4
       5       6       7       8
       9      10      11      12
 
   ZONE T="INPUT-PANEL-IGES=   1-IFLUE=   3", N=    12, E=    3, ET=QUADRILATERAL, F=FEPOINT
   0.1041001E+02   0.1685283E+02   0.1999667E+01
   0.1047218E+02   0.1685283E+02   0.2001466E+01
   0.1038160E+02   0.1627924E+02   0.2002169E+01
   0.1029001E+02   0.1627924E+02   0.1999520E+01
   0.1047231E+02   0.1685283E+02   0.1998704E+01
   0.1053404E+02   0.1685283E+02   0.2006221E+01
   0.1047275E+02   0.1627924E+02   0.2009214E+01
   0.1038179E+02   0.1627924E+02   0.1998139E+01
   0.1053714E+02   0.1685284E+02   0.2009893E+01
   0.1058830E+02   0.1685280E+02   0.1974521E+01
   0.1055267E+02   0.1627920E+02   0.1962553E+01
   0.1047731E+02   0.1627925E+02   0.2014662E+01
       1       2       3       4
       5       6       7       8
       9      10      11      12
 
   ZONE T="INPUT-PANEL-IGES=   1-IFLUE=   4", N=    12, E=    3, ET=QUADRILATERAL, F=FEPOINT
   0.1029001E+02   0.1627924E+02   0.1999632E+01
   0.1038161E+02   0.1627924E+02   0.2001832E+01
   0.1029103E+02   0.1570565E+02   0.2002427E+01
   0.1017000E+02   0.1570565E+02   0.1999520E+01
   0.1038172E+02   0.1627924E+02   0.1998763E+01
   0.1047295E+02   0.1627924E+02   0.2007344E+01
   0.1041171E+02   0.1570565E+02   0.2009738E+01
   0.1029119E+02   0.1570565E+02   0.1998399E+01
   0.1047584E+02   0.1627925E+02   0.2012222E+01
   0.1055709E+02   0.1627921E+02   0.1969874E+01
   0.1052288E+02   0.1570561E+02   0.1960258E+01
   0.1041553E+02   0.1570566E+02   0.2016207E+01
       1       2       3       4
       5       6       7       8
       9      10      11      12
 
   ZONE T="INPUT-PANEL-IGES=   1-IFLUE=   5", N=    12, E=    3, ET=QUADRILATERAL, F=FEPOINT
   0.1017000E+02   0.1570565E+02   0.1999604E+01
   0.1029103E+02   0.1570565E+02   0.2002175E+01
   0.1020046E+02   0.1513207E+02   0.2002709E+01
   0.1005001E+02   0.1513207E+02   0.1999513E+01
   0.1029115E+02   0.1570565E+02   0.1998870E+01
   0.1041184E+02   0.1570565E+02   0.2008327E+01
   0.1035062E+02   0.1513207E+02   0.2010377E+01
   0.1020059E+02   0.1513207E+02   0.1998620E+01
   0.1041450E+02   0.1570566E+02   0.2014017E+01
   0.1052598E+02   0.1570561E+02   0.1966830E+01
   0.1049253E+02   0.1513203E+02   0.1958812E+01
   0.1035394E+02   0.1513208E+02   0.2017471E+01
       1       2       3       4
       5       6       7       8
       9      10      11      12
 
   ZONE T="INPUT-PANEL-IGES=   1-IFLUE=   6", N=    12, E=    3, ET=QUADRILATERAL, F=FEPOINT
   0.1005000E+02   0.1513207E+02   0.1999580E+01
   0.1020047E+02   0.1513207E+02   0.2002507E+01
   0.1010989E+02   0.1455848E+02   0.2003001E+01
   0.9930007E+01   0.1455848E+02   0.1999502E+01
   0.1020057E+02   0.1513207E+02   0.1998997E+01
   0.1035070E+02   0.1513207E+02   0.2009244E+01
   0.1028952E+02   0.1455849E+02   0.2011072E+01
   0.1011001E+02   0.1455848E+02   0.1998821E+01
   0.1035319E+02   0.1513208E+02   0.2015550E+01
   0.1049478E+02   0.1513203E+02   0.1964574E+01
   0.1046177E+02   0.1455843E+02   0.1957682E+01
   0.1029249E+02   0.1455850E+02   0.2018627E+01
       1       2       3       4
       5       6       7       8
       9      10      11      12
 
   ZONE T="INPUT-PANEL-IGES=   1-IFLUE=   7", N=    12, E=    3, ET=QUADRILATERAL, F=FEPOINT
   0.9930006E+01   0.1455848E+02   0.1999559E+01
   0.1010990E+02   0.1455848E+02   0.2002832E+01
   0.1001932E+02   0.1398490E+02   0.2003299E+01
   0.9810007E+01   0.1398490E+02   0.1999490E+01
   0.1010999E+02   0.1455848E+02   0.1999137E+01
   0.1028958E+02   0.1455848E+02   0.2010125E+01
   0.1022840E+02   0.1398491E+02   0.2011798E+01
   0.1001944E+02   0.1398490E+02   0.1999013E+01
   0.1029192E+02   0.1455849E+02   0.2016939E+01
   0.1046348E+02   0.1455844E+02   0.1962747E+01
   0.1043074E+02   0.1398485E+02   0.1956684E+01
   0.1023111E+02   0.1398492E+02   0.2019740E+01
       1       2       3       4
       5       6       7       8
       9      10      11      12
 
   ZONE T="INPUT-PANEL-IGES=   1-IFLUE=   8", N=    12, E=    3, ET=QUADRILATERAL, F=FEPOINT
   0.9810006E+01   0.1398490E+02   0.1999538E+01
   0.1001933E+02   0.1398490E+02   0.2003155E+01
   0.9928755E+01   0.1341131E+02   0.2003601E+01
   0.9690007E+01   0.1341131E+02   0.1999476E+01
   0.1001942E+02   0.1398490E+02   0.1999284E+01
   0.1022845E+02   0.1398490E+02   0.2010984E+01
   0.1016728E+02   0.1341132E+02   0.2012543E+01
   0.9928865E+01   0.1341131E+02   0.1999198E+01
   0.1023066E+02   0.1398491E+02   0.2018243E+01
   0.1043209E+02   0.1398486E+02   0.1961176E+01
   0.1039955E+02   0.1341126E+02   0.1955745E+01
   0.1016980E+02   0.1341133E+02   0.2020834E+01
       1       2       3       4
       5       6       7       8
       9      10      11      12
 
   ZONE T="INPUT-PANEL-IGES=   1-IFLUE=   9", N=    12, E=    3, ET=QUADRILATERAL, F=FEPOINT
   0.9690006E+01   0.1341131E+02   0.1999518E+01
   0.9928757E+01   0.1341131E+02   0.2003474E+01
   0.9838184E+01   0.1283772E+02   0.2003905E+01
   0.9570007E+01   0.1283772E+02   0.1999461E+01
   0.9928853E+01   0.1341131E+02   0.1999435E+01
   0.1016731E+02   0.1341132E+02   0.2011830E+01
   0.1010615E+02   0.1283773E+02   0.2013301E+01
   0.9838293E+01   0.1283772E+02   0.1999380E+01
   0.1016944E+02   0.1341133E+02   0.2019493E+01
   0.1040063E+02   0.1341126E+02   0.1959768E+01
   0.1036823E+02   0.1283767E+02   0.1954832E+01
   0.1010854E+02   0.1283774E+02   0.2021919E+01
       1       2       3       4
       5       6       7       8
       9      10      11      12
 
   ZONE T="INPUT-PANEL-IGES=   1-IFLUE=  10", N=    12, E=    3, ET=QUADRILATERAL, F=FEPOINT
   0.9570006E+01   0.1283772E+02   0.1999499E+01
   0.9838186E+01   0.1283772E+02   0.2003792E+01
   0.9747615E+01   0.1226414E+02   0.2004211E+01
   0.9450007E+01   0.1226414E+02   0.1999446E+01
   0.9838282E+01   0.1283772E+02   0.1999591E+01
   0.1010618E+02   0.1283773E+02   0.2012667E+01
   0.1004501E+02   0.1226415E+02   0.2014068E+01
   0.9747721E+01   0.1226414E+02   0.1999557E+01
   0.1010824E+02   0.1283774E+02   0.2020707E+01
   0.1036913E+02   0.1283767E+02   0.1958468E+01
   0.1033682E+02   0.1226409E+02   0.1953931E+01
   0.1004730E+02   0.1226416E+02   0.2022999E+01
       1       2       3       4
       5       6       7       8
       9      10      11      12
 
   ZONE T="INPUT-PANEL-IGES=   1-IFLUE=  11", N=    12, E=    3, ET=QUADRILATERAL, F=FEPOINT
   0.9450007E+01   0.1226414E+02   0.1999480E+01
   0.9747616E+01   0.1226414E+02   0.2004109E+01
   0.9657044E+01   0.1169055E+02   0.2004518E+01
   0.9330007E+01   0.1169055E+02   0.1999430E+01
   0.9747712E+01   0.1226414E+02   0.1999748E+01
   0.1004504E+02   0.1226415E+02   0.2013496E+01
   0.9983878E+01   0.1169056E+02   0.2014840E+01
   0.9657150E+01   0.1169055E+02   0.1999733E+01
   0.1004705E+02   0.1226416E+02   0.2021895E+01
   0.1033758E+02   0.1226409E+02   0.1957244E+01
   0.1030535E+02   0.1169050E+02   0.1953036E+01
   0.9986083E+01   0.1169057E+02   0.2024079E+01
       1       2       3       4
       5       6       7       8
       9      10      11      12
 
   ZONE T="INPUT-PANEL-IGES=   1-IFLUE=  12", N=    12, E=    3, ET=QUADRILATERAL, F=FEPOINT
   0.9330006E+01   0.1169055E+02   0.1999461E+01
   0.9657046E+01   0.1169055E+02   0.2004426E+01
   0.9566475E+01   0.1111696E+02   0.2004826E+01
   0.9210007E+01   0.1111696E+02   0.1999414E+01
   0.9657142E+01   0.1169055E+02   0.1999907E+01
   0.9983902E+01   0.1169056E+02   0.2014320E+01
   0.9922741E+01   0.1111697E+02   0.2015617E+01
   0.9566578E+01   0.1111696E+02   0.1999908E+01
   0.9985864E+01   0.1169057E+02   0.2023065E+01
   0.1030601E+02   0.1169050E+02   0.1956077E+01
   0.1027382E+02   0.1111690E+02   0.1952141E+01
   0.9924872E+01   0.1111698E+02   0.2025157E+01
       1       2       3       4
       5       6       7       8
       9      10      11      12
 
   ZONE T="INPUT-PANEL-IGES=   1-IFLUE=  13", N=    12, E=    3, ET=QUADRILATERAL, F=FEPOINT
   0.9210007E+01   0.1111696E+02   0.1999442E+01
   0.9566476E+01   0.1111696E+02   0.2004741E+01
   0.9475904E+01   0.1054338E+02   0.2005134E+01
   0.9090007E+01   0.1054338E+02   0.1999398E+01
   0.9566572E+01   0.1111696E+02   0.2000067E+01
   0.9922761E+01   0.1111697E+02   0.2015140E+01
   0.9861603E+01   0.1054339E+02   0.2016398E+01
   0.9476008E+01   0.1054338E+02   0.2000081E+01
   0.9924681E+01   0.1111698E+02   0.2024221E+01
   0.1027440E+02   0.1111691E+02   0.1954950E+01
   0.1024227E+02   0.1054332E+02   0.1951246E+01
   0.9863687E+01   0.1054340E+02   0.2026235E+01
       1       2       3       4
       5       6       7       8
       9      10      11      12
 
   ZONE T="INPUT-PANEL-IGES=   1-IFLUE=  14", N=    12, E=    3, ET=QUADRILATERAL, F=FEPOINT
   0.9090006E+01   0.1054338E+02   0.1999424E+01
   0.9475905E+01   0.1054338E+02   0.2005056E+01
   0.9385334E+01   0.9969793E+01   0.2005443E+01
   0.8970007E+01   0.9969792E+01   0.1999382E+01
   0.9476002E+01   0.1054338E+02   0.2000228E+01
   0.9861622E+01   0.1054339E+02   0.2015957E+01
   0.9800465E+01   0.9969799E+01   0.2017181E+01
   0.9385438E+01   0.9969790E+01   0.2000253E+01
   0.9863519E+01   0.1054340E+02   0.2025366E+01
   0.1024278E+02   0.1054333E+02   0.1953855E+01
   0.1021069E+02   0.9969733E+01   0.1950351E+01
   0.9802506E+01   0.9969812E+01   0.2027315E+01
       1       2       3       4
       5       6       7       8
       9      10      11      12
 
   ZONE T="INPUT-PANEL-IGES=   1-IFLUE=  15", N=    12, E=    3, ET=QUADRILATERAL, F=FEPOINT
   0.8970007E+01   0.9969792E+01   0.1999406E+01
   0.9385335E+01   0.9969793E+01   0.2005370E+01
   0.9294765E+01   0.9396207E+01   0.2005752E+01
   0.8850008E+01   0.9396206E+01   0.1999365E+01
   0.9385433E+01   0.9969790E+01   0.2000389E+01
   0.9800481E+01   0.9969799E+01   0.2016772E+01
   0.9739325E+01   0.9396213E+01   0.2017968E+01
   0.9294869E+01   0.9396204E+01   0.2000425E+01
   0.9802357E+01   0.9969811E+01   0.2026503E+01
   0.1021113E+02   0.9969736E+01   0.1952786E+01
   0.1017908E+02   0.9396146E+01   0.1949454E+01
   0.9741334E+01   0.9396226E+01   0.2028394E+01
       1       2       3       4
       5       6       7       8
       9      10      11      12
 
   ZONE T="INPUT-PANEL-IGES=   1-IFLUE=  16", N=    12, E=    3, ET=QUADRILATERAL, F=FEPOINT
   0.8850007E+01   0.9396206E+01   0.1999388E+01
   0.9294766E+01   0.9396207E+01   0.2005685E+01
   0.9204194E+01   0.8822620E+01   0.2006062E+01
   0.8730007E+01   0.8822619E+01   0.1999349E+01
   0.9294864E+01   0.9396204E+01   0.2000553E+01
   0.9739340E+01   0.9396213E+01   0.2017585E+01
   0.9678185E+01   0.8822627E+01   0.2018756E+01
   0.9204298E+01   0.8822616E+01   0.2000596E+01
   0.9741199E+01   0.9396225E+01   0.2027633E+01
   0.1017948E+02   0.9396148E+01   0.1951736E+01
   0.1014745E+02   0.8822557E+01   0.1948554E+01
   0.9680167E+01   0.8822640E+01   0.2029474E+01
       1       2       3       4
       5       6       7       8
       9      10      11      12
 
   ZONE T="INPUT-PANEL-IGES=   1-IFLUE=  17", N=    12, E=    3, ET=QUADRILATERAL, F=FEPOINT
   0.8730007E+01   0.8822619E+01   0.1999370E+01
   0.9204195E+01   0.8822620E+01   0.2005999E+01
   0.9113624E+01   0.8249034E+01   0.2006372E+01
   0.8610008E+01   0.8249033E+01   0.1999332E+01
   0.9204294E+01   0.8822616E+01   0.2000716E+01
   0.9678198E+01   0.8822627E+01   0.2018397E+01
   0.9617044E+01   0.8249041E+01   0.2019544E+01
   0.9113729E+01   0.8249030E+01   0.2000767E+01
   0.9680046E+01   0.8822639E+01   0.2028758E+01
   0.1014781E+02   0.8822559E+01   0.1950701E+01
   0.1011580E+02   0.8248969E+01   0.1947654E+01
   0.9619006E+01   0.8249054E+01   0.2030555E+01
       1       2       3       4
       5       6       7       8
       9      10      11      12
 
   ZONE T="INPUT-PANEL-IGES=   1-IFLUE=  18", N=    12, E=    3, ET=QUADRILATERAL, F=FEPOINT
   0.8610008E+01   0.8249033E+01   0.1999352E+01
   0.9113625E+01   0.8249034E+01   0.2006312E+01
   0.9023053E+01   0.7675448E+01   0.2006682E+01
   0.8490008E+01   0.7675447E+01   0.1999315E+01
   0.9113725E+01   0.8249030E+01   0.2000879E+01
   0.9617057E+01   0.8249041E+01   0.2019206E+01
   0.9555904E+01   0.7675455E+01   0.2020335E+01
   0.9023160E+01   0.7675444E+01   0.2000936E+01
   0.9618895E+01   0.8249053E+01   0.2029880E+01
   0.1011613E+02   0.8248972E+01   0.1949680E+01
   0.1008414E+02   0.7675382E+01   0.1946751E+01
   0.9557849E+01   0.7675469E+01   0.2031636E+01
       1       2       3       4
       5       6       7       8
       9      10      11      12
 
   ZONE T="INPUT-PANEL-IGES=   1-IFLUE=  19", N=    12, E=    3, ET=QUADRILATERAL, F=FEPOINT
   0.8490007E+01   0.7675447E+01   0.1999334E+01
   0.9023054E+01   0.7675448E+01   0.2006626E+01
   0.8932484E+01   0.7101862E+01   0.2006993E+01
   0.8370008E+01   0.7101861E+01   0.1999298E+01
   0.9023156E+01   0.7675444E+01   0.2001043E+01
   0.9555915E+01   0.7675455E+01   0.2020015E+01
   0.9494763E+01   0.7101870E+01   0.2021126E+01
   0.8932591E+01   0.7101858E+01   0.2001106E+01
   0.9557748E+01   0.7675468E+01   0.2030997E+01
   0.1008445E+02   0.7675384E+01   0.1948670E+01
   0.1005248E+02   0.7101795E+01   0.1945846E+01
   0.9496696E+01   0.7101883E+01   0.2032718E+01
       1       2       3       4
       5       6       7       8
       9      10      11      12
 
   ZONE T="INPUT-PANEL-IGES=   1-IFLUE=  20", N=    12, E=    3, ET=QUADRILATERAL, F=FEPOINT
   0.8370008E+01   0.7101861E+01   0.1999316E+01
   0.8932484E+01   0.7101862E+01   0.2006939E+01
   0.8841913E+01   0.6528275E+01   0.2007303E+01
   0.8250008E+01   0.6528274E+01   0.1999282E+01
   0.8932587E+01   0.7101858E+01   0.2001207E+01
   0.9494774E+01   0.7101869E+01   0.2020823E+01
   0.9433621E+01   0.6528283E+01   0.2021919E+01
   0.8842021E+01   0.6528271E+01   0.2001276E+01
   0.9496602E+01   0.7101883E+01   0.2032111E+01
   0.1005276E+02   0.7101796E+01   0.1947668E+01
   0.1002080E+02   0.6528206E+01   0.1944941E+01
   0.9435546E+01   0.6528297E+01   0.2033801E+01
       1       2       3       4
       5       6       7       8
       9      10      11      12
 
   ZONE T="INPUT-PANEL-IGES=   1-IFLUE=  21", N=    12, E=    3, ET=QUADRILATERAL, F=FEPOINT
   0.8250007E+01   0.6528274E+01   0.1999299E+01
   0.8841914E+01   0.6528275E+01   0.2007252E+01
   0.8751343E+01   0.5954689E+01   0.2007614E+01
   0.8130008E+01   0.5954688E+01   0.1999265E+01
   0.8842018E+01   0.6528271E+01   0.2001372E+01
   0.9433631E+01   0.6528283E+01   0.2021631E+01
   0.9372479E+01   0.5954697E+01   0.2022712E+01
   0.8751452E+01   0.5954685E+01   0.2001445E+01
   0.9435459E+01   0.6528296E+01   0.2033223E+01
   0.1002106E+02   0.6528208E+01   0.1946675E+01
   0.9989112E+01   0.5954619E+01   0.1944033E+01
   0.9374399E+01   0.5954711E+01   0.2034884E+01
       1       2       3       4
       5       6       7       8
       9      10      11      12
 
   ZONE T="INPUT-PANEL-IGES=   1-IFLUE=  22", N=    12, E=    3, ET=QUADRILATERAL, F=FEPOINT
   0.8130008E+01   0.5954688E+01   0.1999281E+01
   0.8751344E+01   0.5954689E+01   0.2007565E+01
   0.8660772E+01   0.5381103E+01   0.2007925E+01
   0.8010008E+01   0.5381102E+01   0.1999248E+01
   0.8751449E+01   0.5954685E+01   0.2001537E+01
   0.9372488E+01   0.5954697E+01   0.2022437E+01
   0.9311338E+01   0.5381111E+01   0.2023505E+01
   0.8660883E+01   0.5381099E+01   0.2001614E+01
   0.9374318E+01   0.5954711E+01   0.2034332E+01
   0.9989354E+01   0.5954620E+01   0.1945688E+01
   0.9957420E+01   0.5381031E+01   0.1943124E+01
   0.9313253E+01   0.5381126E+01   0.2035967E+01
       1       2       3       4
       5       6       7       8
       9      10      11      12
 
   ZONE T="INPUT-PANEL-IGES=   1-IFLUE=  23", N=    12, E=    3, ET=QUADRILATERAL, F=FEPOINT
   0.8010008E+01   0.5381102E+01   0.1999263E+01
   0.8660773E+01   0.5381103E+01   0.2007878E+01
   0.8570202E+01   0.4807516E+01   0.2008236E+01
   0.7890009E+01   0.4807515E+01   0.1999231E+01
   0.8660881E+01   0.5381099E+01   0.2001702E+01
   0.9311346E+01   0.5381111E+01   0.2023243E+01
   0.9250196E+01   0.4807525E+01   0.2024299E+01
   0.8570315E+01   0.4807512E+01   0.2001783E+01
   0.9313178E+01   0.5381125E+01   0.2035439E+01
   0.9957645E+01   0.5381032E+01   0.1944706E+01
   0.9925721E+01   0.4807442E+01   0.1942215E+01
   0.9252110E+01   0.4807539E+01   0.2037051E+01
       1       2       3       4
       5       6       7       8
       9      10      11      12
 
   ZONE T="INPUT-PANEL-IGES=   1-IFLUE=  24", N=    12, E=    3, ET=QUADRILATERAL, F=FEPOINT
   0.7890008E+01   0.4807515E+01   0.1999246E+01
   0.8570203E+01   0.4807516E+01   0.2008191E+01
   0.8479632E+01   0.4233930E+01   0.2008547E+01
   0.7770008E+01   0.4233929E+01   0.1999214E+01
   0.8570312E+01   0.4807512E+01   0.2001866E+01
   0.9250204E+01   0.4807524E+01   0.2024049E+01
   0.9189053E+01   0.4233939E+01   0.2025093E+01
   0.8479745E+01   0.4233926E+01   0.2001952E+01
   0.9252040E+01   0.4807539E+01   0.2036546E+01
   0.9925932E+01   0.4807444E+01   0.1943730E+01
   0.9894016E+01   0.4233855E+01   0.1941304E+01
   0.9190968E+01   0.4233954E+01   0.2038135E+01
       1       2       3       4
       5       6       7       8
       9      10      11      12
 
   ZONE T="INPUT-PANEL-IGES=   1-IFLUE=  25", N=    12, E=    3, ET=QUADRILATERAL, F=FEPOINT
   0.7770008E+01   0.4233929E+01   0.1999228E+01
   0.8479632E+01   0.4233930E+01   0.2008504E+01
   0.8389062E+01   0.3660344E+01   0.2008858E+01
   0.7650009E+01   0.3660343E+01   0.1999197E+01
   0.8479743E+01   0.4233926E+01   0.2002032E+01
   0.9189060E+01   0.4233939E+01   0.2024853E+01
   0.9127911E+01   0.3660353E+01   0.2025888E+01
   0.8389176E+01   0.3660340E+01   0.2002120E+01
   0.9190902E+01   0.4233953E+01   0.2037650E+01
   0.9894214E+01   0.4233856E+01   0.1942758E+01
   0.9862308E+01   0.3660267E+01   0.1940391E+01
   0.9129828E+01   0.3660368E+01   0.2039219E+01
       1       2       3       4
       5       6       7       8
       9      10      11      12
 
   ZONE T="INPUT-PANEL-IGES=   1-IFLUE=  26", N=    12, E=    3, ET=QUADRILATERAL, F=FEPOINT
   0.7650003E+01   0.3660346E+01   0.1999634E+01
   0.8389078E+01   0.3660333E+01   0.2007545E+01
   0.8389061E+01   0.3167300E+01   0.2006676E+01
   0.7650009E+01   0.3167313E+01   0.1998767E+01
   0.8389162E+01   0.3660391E+01   0.2002574E+01
   0.9127953E+01   0.3660198E+01   0.2024525E+01
   0.9127936E+01   0.3167165E+01   0.2020181E+01
   0.8389168E+01   0.3167358E+01   0.1998230E+01
   0.9129870E+01   0.3659946E+01   0.2039523E+01
   0.9862182E+01   0.3661533E+01   0.1939479E+01
   0.9862166E+01   0.3168500E+01   0.1931661E+01
   0.9129875E+01   0.3166913E+01   0.2031702E+01
       1       2       3       4
       5       6       7       8
       9      10      11      12
 
   ZONE T="INPUT-PANEL-IGES=   1-IFLUE=  27", N=    12, E=    3, ET=QUADRILATERAL, F=FEPOINT
   0.7650002E+01   0.3167312E+01   0.1999628E+01
   0.8389083E+01   0.3167304E+01   0.2004092E+01
   0.8389078E+01   0.2674271E+01   0.2003223E+01
   0.7650003E+01   0.2674279E+01   0.1998759E+01
   0.8389145E+01   0.3167351E+01   0.1999060E+01
   0.9128004E+01   0.3167187E+01   0.2017693E+01
   0.9128000E+01   0.2674154E+01   0.2013348E+01
   0.8389147E+01   0.2674318E+01   0.1994715E+01
   0.9130028E+01   0.3166896E+01   0.2032797E+01
   0.9861707E+01   0.3168552E+01   0.1928376E+01
   0.9861703E+01   0.2675519E+01   0.1920557E+01
   0.9130030E+01   0.2673863E+01   0.2024977E+01
       1       2       3       4
       5       6       7       8
       9      10      11      12
 
   ZONE T="INPUT-PANEL-IGES=   1-IFLUE=  28", N=    12, E=    3, ET=QUADRILATERAL, F=FEPOINT
   0.7650000E+01   0.2674277E+01   0.1999621E+01
   0.8389088E+01   0.2674276E+01   0.2000638E+01
   0.8389096E+01   0.2181243E+01   0.1999769E+01
   0.7649997E+01   0.2181244E+01   0.1998752E+01
   0.8389128E+01   0.2674311E+01   0.1995544E+01
   0.9128057E+01   0.2674176E+01   0.2010860E+01
   0.9128065E+01   0.2181143E+01   0.2006516E+01
   0.8389125E+01   0.2181278E+01   0.1991200E+01
   0.9130189E+01   0.2673846E+01   0.2026071E+01
   0.9861224E+01   0.2675571E+01   0.1917276E+01
   0.9861232E+01   0.2182538E+01   0.1909455E+01
   0.9130187E+01   0.2180813E+01   0.2018251E+01
       1       2       3       4
       5       6       7       8
       9      10      11      12
 
   ZONE T="INPUT-PANEL-IGES=   1-IFLUE=  29", N=    12, E=    3, ET=QUADRILATERAL, F=FEPOINT
   0.7649998E+01   0.2181243E+01   0.1999613E+01
   0.8389093E+01   0.2181247E+01   0.1997184E+01
   0.8389113E+01   0.1688214E+01   0.1996315E+01
   0.7649992E+01   0.1688210E+01   0.1998744E+01
   0.8389110E+01   0.2181270E+01   0.1992029E+01
   0.9128111E+01   0.2181165E+01   0.2004028E+01
   0.9128131E+01   0.1688132E+01   0.1999683E+01
   0.8389103E+01   0.1688237E+01   0.1987684E+01
   0.9130353E+01   0.2180795E+01   0.2019343E+01
   0.9860734E+01   0.2182590E+01   0.1906179E+01
   0.9860754E+01   0.1689557E+01   0.1898356E+01
   0.9130346E+01   0.1687762E+01   0.2011524E+01
       1       2       3       4
       5       6       7       8
       9      10      11      12
 
   ZONE T="INPUT-PANEL-IGES=   1-IFLUE=  30", N=    12, E=    3, ET=QUADRILATERAL, F=FEPOINT
   0.7649996E+01   0.1688208E+01   0.1999606E+01
   0.8389099E+01   0.1688219E+01   0.1993730E+01
   0.8389131E+01   0.1195186E+01   0.1992861E+01
   0.7649986E+01   0.1195175E+01   0.1998737E+01
   0.8389091E+01   0.1688230E+01   0.1988514E+01
   0.9128166E+01   0.1688154E+01   0.1997194E+01
   0.9128199E+01   0.1195121E+01   0.1992851E+01
   0.8389080E+01   0.1195197E+01   0.1984170E+01
   0.9130518E+01   0.1687745E+01   0.2012615E+01
   0.9860237E+01   0.1689609E+01   0.1895083E+01
   0.9860269E+01   0.1196576E+01   0.1887257E+01
   0.9130508E+01   0.1194712E+01   0.2004796E+01
       1       2       3       4
       5       6       7       8
       9      10      11      12
 
   ZONE T="INPUT-PANEL-IGES=   1-IFLUE=  31", N=    12, E=    3, ET=QUADRILATERAL, F=FEPOINT
   0.7649994E+01   0.1195174E+01   0.1999599E+01
   0.8389105E+01   0.1195190E+01   0.1990276E+01
   0.8389149E+01   0.7021568E+00   0.1989407E+01
   0.7649980E+01   0.7021404E+00   0.1998730E+01
   0.8389073E+01   0.1195190E+01   0.1984999E+01
   0.9128222E+01   0.1195143E+01   0.1990362E+01
   0.9128267E+01   0.7021090E+00   0.1986018E+01
   0.8389058E+01   0.7021563E+00   0.1980654E+01
   0.9130686E+01   0.1194695E+01   0.2005885E+01
   0.9859733E+01   0.1196628E+01   0.1883990E+01
   0.9859777E+01   0.7035946E+00   0.1876162E+01
   0.9130672E+01   0.7016611E+00   0.1998067E+01
       1       2       3       4
       5       6       7       8
       9      10      11      12
 
   ZONE T="INPUT-PANEL-IGES=   1-IFLUE=  32", N=    12, E=    3, ET=QUADRILATERAL, F=FEPOINT
   0.7649992E+01   0.7021389E+00   0.1999591E+01
   0.8389111E+01   0.7021614E+00   0.1986823E+01
   0.8389168E+01   0.2091283E+00   0.1985953E+01
   0.7649973E+01   0.2091058E+00   0.1998722E+01
   0.8389054E+01   0.7021490E+00   0.1981484E+01
   0.9128279E+01   0.7021310E+00   0.1983529E+01
   0.9128336E+01   0.2090979E+00   0.1979186E+01
   0.8389035E+01   0.2091159E+00   0.1977139E+01
   0.9130857E+01   0.7016439E+00   0.1999155E+01
   0.9859221E+01   0.7036464E+00   0.1872900E+01
   0.9859277E+01   0.2106135E+00   0.1865070E+01
   0.9130838E+01   0.2086107E+00   0.1991338E+01
       1       2       3       4
       5       6       7       8
       9      10      11      12
 
   ZONE T="INPUT-PANEL-IGES=   1-IFLUE=  33", N=    12, E=    3, ET=QUADRILATERAL, F=FEPOINT
   0.7649985E+01   0.2091047E+00   0.1999336E+01
   0.8389133E+01   0.2091315E+00   0.1984113E+01
   0.8389161E+01   0.2009310E-04   0.1983744E+01
   0.7649976E+01  -0.6697699E-05   0.1998968E+01
   0.8389034E+01   0.2091107E+00   0.1977730E+01
   0.9128338E+01   0.2091135E+00   0.1977414E+01
   0.9128366E+01   0.2089383E-05   0.1975571E+01
   0.8389025E+01  -0.6964608E-06   0.1975887E+01
   0.9130974E+01   0.2085984E+00   0.1992111E+01
   0.9858870E+01   0.2106504E+00   0.1862750E+01
   0.9858897E+01   0.1539062E-02   0.1859428E+01
   0.9130965E+01  -0.5130206E-03   0.1988796E+01
       1       2       3       4
       5       6       7       8
       9      10      11      12
 
   ZONE T="INPUT-PANEL-IGES=   1-IFLUE=  34", N=    12, E=    3, ET=QUADRILATERAL, F=FEPOINT
   0.7649976E+01   0.6697699E-05   0.1998968E+01
   0.8389161E+01  -0.2009310E-04   0.1983744E+01
   0.8389133E+01  -0.2091315E+00   0.1984113E+01
   0.7649985E+01  -0.2091047E+00   0.1999336E+01
   0.8389025E+01   0.6964608E-06   0.1975887E+01
   0.9128366E+01  -0.2089383E-05   0.1975571E+01
   0.9128338E+01  -0.2091135E+00   0.1977414E+01
   0.8389034E+01  -0.2091107E+00   0.1977730E+01
   0.9130965E+01   0.5130206E-03   0.1988796E+01
   0.9858897E+01  -0.1539062E-02   0.1859428E+01
   0.9858870E+01  -0.2106504E+00   0.1862750E+01
   0.9130974E+01  -0.2085984E+00   0.1992111E+01
       1       2       3       4
       5       6       7       8
       9      10      11      12
 
   ZONE T="INPUT-PANEL-IGES=   1-IFLUE=  35", N=    12, E=    3, ET=QUADRILATERAL, F=FEPOINT
   0.7649973E+01  -0.2091058E+00   0.1998722E+01
   0.8389168E+01  -0.2091283E+00   0.1985953E+01
   0.8389111E+01  -0.7021614E+00   0.1986823E+01
   0.7649992E+01  -0.7021389E+00   0.1999591E+01
   0.8389035E+01  -0.2091159E+00   0.1977139E+01
   0.9128336E+01  -0.2090979E+00   0.1979186E+01
   0.9128279E+01  -0.7021310E+00   0.1983529E+01
   0.8389054E+01  -0.7021490E+00   0.1981484E+01
   0.9130838E+01  -0.2086107E+00   0.1991338E+01
   0.9859277E+01  -0.2106135E+00   0.1865070E+01
   0.9859221E+01  -0.7036464E+00   0.1872900E+01
   0.9130857E+01  -0.7016439E+00   0.1999155E+01
       1       2       3       4
       5       6       7       8
       9      10      11      12
 
   ZONE T="INPUT-PANEL-IGES=   1-IFLUE=  36", N=    12, E=    3, ET=QUADRILATERAL, F=FEPOINT
   0.7649980E+01  -0.7021404E+00   0.1998730E+01
   0.8389149E+01  -0.7021568E+00   0.1989407E+01
   0.8389105E+01  -0.1195190E+01   0.1990276E+01
   0.7649994E+01  -0.1195174E+01   0.1999599E+01
   0.8389058E+01  -0.7021563E+00   0.1980654E+01
   0.9128267E+01  -0.7021090E+00   0.1986018E+01
   0.9128222E+01  -0.1195143E+01   0.1990362E+01
   0.8389073E+01  -0.1195190E+01   0.1984999E+01
   0.9130672E+01  -0.7016611E+00   0.1998067E+01
   0.9859777E+01  -0.7035946E+00   0.1876162E+01
   0.9859733E+01  -0.1196628E+01   0.1883990E+01
   0.9130686E+01  -0.1194695E+01   0.2005885E+01
       1       2       3       4
       5       6       7       8
       9      10      11      12
 
   ZONE T="INPUT-PANEL-IGES=   1-IFLUE=  37", N=    12, E=    3, ET=QUADRILATERAL, F=FEPOINT
   0.7649986E+01  -0.1195175E+01   0.1998737E+01
   0.8389131E+01  -0.1195186E+01   0.1992861E+01
   0.8389099E+01  -0.1688219E+01   0.1993730E+01
   0.7649996E+01  -0.1688208E+01   0.1999606E+01
   0.8389080E+01  -0.1195197E+01   0.1984170E+01
   0.9128199E+01  -0.1195121E+01   0.1992851E+01
   0.9128166E+01  -0.1688154E+01   0.1997194E+01
   0.8389091E+01  -0.1688230E+01   0.1988514E+01
   0.9130508E+01  -0.1194712E+01   0.2004796E+01
   0.9860269E+01  -0.1196576E+01   0.1887257E+01
   0.9860237E+01  -0.1689609E+01   0.1895083E+01
   0.9130518E+01  -0.1687745E+01   0.2012615E+01
       1       2       3       4
       5       6       7       8
       9      10      11      12
 
   ZONE T="INPUT-PANEL-IGES=   1-IFLUE=  38", N=    12, E=    3, ET=QUADRILATERAL, F=FEPOINT
   0.7649992E+01  -0.1688210E+01   0.1998744E+01
   0.8389113E+01  -0.1688214E+01   0.1996315E+01
   0.8389093E+01  -0.2181247E+01   0.1997184E+01
   0.7649998E+01  -0.2181243E+01   0.1999613E+01
   0.8389103E+01  -0.1688237E+01   0.1987684E+01
   0.9128131E+01  -0.1688132E+01   0.1999683E+01
   0.9128111E+01  -0.2181165E+01   0.2004028E+01
   0.8389110E+01  -0.2181270E+01   0.1992029E+01
   0.9130346E+01  -0.1687762E+01   0.2011524E+01
   0.9860754E+01  -0.1689557E+01   0.1898356E+01
   0.9860734E+01  -0.2182590E+01   0.1906179E+01
   0.9130353E+01  -0.2180795E+01   0.2019343E+01
       1       2       3       4
       5       6       7       8
       9      10      11      12
 
   ZONE T="INPUT-PANEL-IGES=   1-IFLUE=  39", N=    12, E=    3, ET=QUADRILATERAL, F=FEPOINT
   0.7649997E+01  -0.2181244E+01   0.1998752E+01
   0.8389096E+01  -0.2181243E+01   0.1999769E+01