  TITLE = "Geometry of the configuration"
  VARIABLES = "X","Y","Z"
 
   ZONE T="INPUT-PANEL-IGES=   1-IFLUE=   1", N=    12, E=    3, ET=QUADRILATERAL, F=FEPOINT
   0.8334705E+01   0.1259595E+02   0.1999657E+01
   0.8494860E+01   0.1259595E+02   0.2002514E+01
   0.8490048E+01   0.1218979E+02   0.2002922E+01
   0.8303583E+01   0.1218979E+02   0.1999595E+01
   0.8494933E+01   0.1259595E+02   0.1999626E+01
   0.8654864E+01   0.1259595E+02   0.2008543E+01
   0.8676341E+01   0.1218980E+02   0.2009924E+01
   0.8490136E+01   0.1218979E+02   0.1999541E+01
   0.8656482E+01   0.1259596E+02   0.2013971E+01
   0.8810911E+01   0.1259591E+02   0.1971438E+01
   0.8858024E+01   0.1218974E+02   0.1966705E+01
   0.8678224E+01   0.1218981E+02   0.2016226E+01
       1       2       3       4
       5       6       7       8
       9      10      11      12
 
   ZONE T="INPUT-PANEL-IGES=   1-IFLUE=   2", N=    12, E=    3, ET=QUADRILATERAL, F=FEPOINT
   0.8303582E+01   0.1218979E+02   0.1999634E+01
   0.8490050E+01   0.1218979E+02   0.2002806E+01
   0.8485240E+01   0.1178363E+02   0.2003199E+01
   0.8272460E+01   0.1178363E+02   0.1999579E+01
   0.8490125E+01   0.1218979E+02   0.1999732E+01
   0.8676372E+01   0.1218980E+02   0.2009353E+01
   0.8697852E+01   0.1178364E+02   0.2010654E+01
   0.8485325E+01   0.1178363E+02   0.1999674E+01
   0.8677953E+01   0.1218980E+02   0.2015199E+01
   0.8858836E+01   0.1218975E+02   0.1969788E+01
   0.8906062E+01   0.1178358E+02   0.1965491E+01
   0.8699657E+01   0.1178365E+02   0.2017308E+01
       1       2       3       4
       5       6       7       8
       9      10      11      12
 
   ZONE T="INPUT-PANEL-IGES=   1-IFLUE=   3", N=    12, E=    3, ET=QUADRILATERAL, F=FEPOINT
   0.8272460E+01   0.1178363E+02   0.1999613E+01
   0.8485241E+01   0.1178363E+02   0.2003098E+01
   0.8480431E+01   0.1137746E+02   0.2003477E+01
   0.8241338E+01   0.1137746E+02   0.1999561E+01
   0.8485317E+01   0.1178363E+02   0.1999841E+01
   0.8697877E+01   0.1178364E+02   0.2010154E+01
   0.8719360E+01   0.1137747E+02   0.2011392E+01
   0.8480516E+01   0.1137746E+02   0.1999804E+01
   0.8699436E+01   0.1178365E+02   0.2016394E+01
   0.8906725E+01   0.1178358E+02   0.1968234E+01
   0.8954034E+01   0.1137741E+02   0.1964275E+01
   0.8721113E+01   0.1137748E+02   0.2018391E+01
       1       2       3       4
       5       6       7       8
       9      10      11      12
 
   ZONE T="INPUT-PANEL-IGES=   1-IFLUE=   4", N=    12, E=    3, ET=QUADRILATERAL, F=FEPOINT
   0.8241337E+01   0.1137746E+02   0.1999591E+01
   0.8480433E+01   0.1137746E+02   0.2003387E+01
   0.8475623E+01   0.1097130E+02   0.2003757E+01
   0.8210215E+01   0.1097130E+02   0.1999544E+01
   0.8480509E+01   0.1137746E+02   0.1999952E+01
   0.8719381E+01   0.1137747E+02   0.2010948E+01
   0.8740867E+01   0.1097131E+02   0.2012137E+01
   0.8475707E+01   0.1097130E+02   0.1999932E+01
   0.8720928E+01   0.1137748E+02   0.2017568E+01
   0.8954589E+01   0.1137741E+02   0.1966743E+01
   0.9001959E+01   0.1097125E+02   0.1963056E+01
   0.8742583E+01   0.1097132E+02   0.2019475E+01
       1       2       3       4
       5       6       7       8
       9      10      11      12
 
   ZONE T="INPUT-PANEL-IGES=   1-IFLUE=   5", N=    12, E=    3, ET=QUADRILATERAL, F=FEPOINT
   0.8210215E+01   0.1097130E+02   0.1999571E+01
   0.8475624E+01   0.1097130E+02   0.2003676E+01
   0.8470814E+01   0.1056513E+02   0.2004037E+01
   0.8179093E+01   0.1056513E+02   0.1999525E+01
   0.8475701E+01   0.1097130E+02   0.2000065E+01
   0.8740885E+01   0.1097131E+02   0.2011737E+01
   0.8762373E+01   0.1056514E+02   0.2012887E+01
   0.8470898E+01   0.1056513E+02   0.2000058E+01
   0.8742425E+01   0.1097132E+02   0.2018727E+01
   0.9002433E+01   0.1097125E+02   0.1965298E+01
   0.9049850E+01   0.1056507E+02   0.1961833E+01
   0.8764066E+01   0.1056515E+02   0.2020560E+01
       1       2       3       4
       5       6       7       8
       9      10      11      12
 
   ZONE T="INPUT-PANEL-IGES=   1-IFLUE=   6", N=    12, E=    3, ET=QUADRILATERAL, F=FEPOINT
   0.8179092E+01   0.1056513E+02   0.1999550E+01
   0.8470815E+01   0.1056513E+02   0.2003963E+01
   0.8466005E+01   0.1015897E+02   0.2004319E+01
   0.8147970E+01   0.1015897E+02   0.1999507E+01
   0.8470893E+01   0.1056513E+02   0.2000179E+01
   0.8762388E+01   0.1056514E+02   0.2012522E+01
   0.8783877E+01   0.1015898E+02   0.2013640E+01
   0.8466090E+01   0.1015897E+02   0.2000184E+01
   0.8763929E+01   0.1056515E+02   0.2019876E+01
   0.9050262E+01   0.1056508E+02   0.1963885E+01
   0.9097716E+01   0.1015891E+02   0.1960606E+01
   0.8785556E+01   0.1015899E+02   0.2021646E+01
       1       2       3       4
       5       6       7       8
       9      10      11      12
 
   ZONE T="INPUT-PANEL-IGES=   1-IFLUE=   7", N=    12, E=    3, ET=QUADRILATERAL, F=FEPOINT
   0.8147970E+01   0.1015897E+02   0.1999530E+01
   0.8466006E+01   0.1015897E+02   0.2004251E+01
   0.8461196E+01   0.9752805E+01   0.2004600E+01
   0.8116847E+01   0.9752804E+01   0.1999488E+01
   0.8466086E+01   0.1015897E+02   0.2000295E+01
   0.8783891E+01   0.1015898E+02   0.2013306E+01
   0.8805382E+01   0.9752811E+01   0.2014395E+01
   0.8461283E+01   0.9752802E+01   0.2000308E+01
   0.8785435E+01   0.1015899E+02   0.2021015E+01
   0.9098078E+01   0.1015892E+02   0.1962498E+01
   0.9145562E+01   0.9752745E+01   0.1959375E+01
   0.8807054E+01   0.9752824E+01   0.2022734E+01
       1       2       3       4
       5       6       7       8
       9      10      11      12
 
   ZONE T="INPUT-PANEL-IGES=   1-IFLUE=   8", N=    12, E=    3, ET=QUADRILATERAL, F=FEPOINT
   0.8116846E+01   0.9752804E+01   0.1999509E+01
   0.8461197E+01   0.9752805E+01   0.2004538E+01
   0.8456387E+01   0.9346641E+01   0.2004882E+01
   0.8085724E+01   0.9346640E+01   0.1999469E+01
   0.8461279E+01   0.9752802E+01   0.2000411E+01
   0.8805394E+01   0.9752811E+01   0.2014087E+01
   0.8826885E+01   0.9346648E+01   0.2015153E+01
   0.8456476E+01   0.9346637E+01   0.2000432E+01
   0.8806947E+01   0.9752823E+01   0.2022149E+01
   0.9145884E+01   0.9752747E+01   0.1961130E+01
   0.9193393E+01   0.9346578E+01   0.1958141E+01
   0.8828556E+01   0.9346661E+01   0.2023822E+01
       1       2       3       4
       5       6       7       8
       9      10      11      12
 
   ZONE T="INPUT-PANEL-IGES=   1-IFLUE=   9", N=    12, E=    3, ET=QUADRILATERAL, F=FEPOINT
   0.8085724E+01   0.9346640E+01   0.1999488E+01
   0.8456388E+01   0.9346641E+01   0.2004824E+01
   0.8451578E+01   0.8940477E+01   0.2005165E+01
   0.8054602E+01   0.8940476E+01   0.1999450E+01
   0.8456472E+01   0.9346638E+01   0.2000527E+01
   0.8826897E+01   0.9346647E+01   0.2014866E+01
   0.8848388E+01   0.8940484E+01   0.2015911E+01
   0.8451668E+01   0.8940473E+01   0.2000555E+01
   0.8828459E+01   0.9346660E+01   0.2023277E+01
   0.9193682E+01   0.9346581E+01   0.1959777E+01
   0.9241212E+01   0.8940412E+01   0.1956903E+01
   0.8850063E+01   0.8940497E+01   0.2024911E+01
       1       2       3       4
       5       6       7       8
       9      10      11      12
 
   ZONE T="INPUT-PANEL-IGES=   1-IFLUE=  10", N=    12, E=    3, ET=QUADRILATERAL, F=FEPOINT
   0.8054602E+01   0.8940476E+01   0.1999468E+01
   0.8451579E+01   0.8940477E+01   0.2005111E+01
   0.8446769E+01   0.8534313E+01   0.2005448E+01
   0.8023480E+01   0.8534312E+01   0.1999431E+01
   0.8451665E+01   0.8940473E+01   0.2000644E+01
   0.8848398E+01   0.8940484E+01   0.2015644E+01
   0.8869891E+01   0.8534320E+01   0.2016672E+01
   0.8446860E+01   0.8534309E+01   0.2000677E+01
   0.8849975E+01   0.8940497E+01   0.2024400E+01
   0.9241474E+01   0.8940414E+01   0.1958435E+01
   0.9289020E+01   0.8534246E+01   0.1955664E+01
   0.8871572E+01   0.8534334E+01   0.2026001E+01
       1       2       3       4
       5       6       7       8
       9      10      11      12
 
   ZONE T="INPUT-PANEL-IGES=   1-IFLUE=  11", N=    12, E=    3, ET=QUADRILATERAL, F=FEPOINT
   0.8023479E+01   0.8534312E+01   0.1999448E+01
   0.8446770E+01   0.8534313E+01   0.2005397E+01
   0.8441961E+01   0.8128149E+01   0.2005731E+01
   0.7992357E+01   0.8128148E+01   0.1999412E+01
   0.8446857E+01   0.8534309E+01   0.2000761E+01
   0.8869900E+01   0.8534320E+01   0.2016421E+01
   0.8891393E+01   0.8128157E+01   0.2017433E+01
   0.8442053E+01   0.8128145E+01   0.2000800E+01
   0.8871492E+01   0.8534333E+01   0.2025521E+01
   0.9289260E+01   0.8534248E+01   0.1957104E+01
   0.9336822E+01   0.8128080E+01   0.1954422E+01
   0.8893085E+01   0.8128171E+01   0.2027093E+01
       1       2       3       4
       5       6       7       8
       9      10      11      12
 
   ZONE T="INPUT-PANEL-IGES=   1-IFLUE=  12", N=    12, E=    3, ET=QUADRILATERAL, F=FEPOINT
   0.7992357E+01   0.8128148E+01   0.1999428E+01
   0.8441961E+01   0.8128149E+01   0.2005684E+01
   0.8437152E+01   0.7721985E+01   0.2006014E+01
   0.7961235E+01   0.7721984E+01   0.1999393E+01
   0.8442050E+01   0.8128145E+01   0.2000879E+01
   0.8891402E+01   0.8128157E+01   0.2017196E+01
   0.8912896E+01   0.7721993E+01   0.2018196E+01
   0.8437247E+01   0.7721981E+01   0.2000923E+01
   0.8893012E+01   0.8128170E+01   0.2026640E+01
   0.9337041E+01   0.8128082E+01   0.1955781E+01
   0.9384615E+01   0.7721914E+01   0.1953179E+01
   0.8914599E+01   0.7722007E+01   0.2028184E+01
       1       2       3       4
       5       6       7       8
       9      10      11      12
 
   ZONE T="INPUT-PANEL-IGES=   1-IFLUE=  13", N=    12, E=    3, ET=QUADRILATERAL, F=FEPOINT
   0.7961234E+01   0.7721984E+01   0.1999408E+01
   0.8437153E+01   0.7721985E+01   0.2005969E+01
   0.8432342E+01   0.7315821E+01   0.2006298E+01
   0.7930111E+01   0.7315820E+01   0.1999374E+01
   0.8437244E+01   0.7721981E+01   0.2000997E+01
   0.8912904E+01   0.7721993E+01   0.2017973E+01
   0.8934398E+01   0.7315829E+01   0.2018958E+01
   0.8432439E+01   0.7315817E+01   0.2001045E+01
   0.8914531E+01   0.7722007E+01   0.2027756E+01
   0.9384818E+01   0.7721915E+01   0.1954465E+01
   0.9432404E+01   0.7315747E+01   0.1951934E+01
   0.8936116E+01   0.7315844E+01   0.2029277E+01
       1       2       3       4
       5       6       7       8
       9      10      11      12
 
   ZONE T="INPUT-PANEL-IGES=   1-IFLUE=  14", N=    12, E=    3, ET=QUADRILATERAL, F=FEPOINT
   0.7930111E+01   0.7315820E+01   0.1999388E+01
   0.8432343E+01   0.7315821E+01   0.2006255E+01
   0.8427533E+01   0.6909657E+01   0.2006581E+01
   0.7898989E+01   0.6909656E+01   0.1999354E+01
   0.8432437E+01   0.7315817E+01   0.2001115E+01
   0.8934406E+01   0.7315829E+01   0.2018747E+01
   0.8955900E+01   0.6909666E+01   0.2019722E+01
   0.8427632E+01   0.6909653E+01   0.2001166E+01
   0.8936053E+01   0.7315844E+01   0.2028870E+01
   0.9432592E+01   0.7315749E+01   0.1953154E+01
   0.9480187E+01   0.6909581E+01   0.1950687E+01
   0.8957634E+01   0.6909681E+01   0.2030370E+01
       1       2       3       4
       5       6       7       8
       9      10      11      12
 
   ZONE T="INPUT-PANEL-IGES=   1-IFLUE=  15", N=    12, E=    3, ET=QUADRILATERAL, F=FEPOINT
   0.7898989E+01   0.6909656E+01   0.1999368E+01
   0.8427534E+01   0.6909657E+01   0.2006541E+01
   0.8422725E+01   0.6503493E+01   0.2006864E+01
   0.7867866E+01   0.6503492E+01   0.1999335E+01
   0.8427630E+01   0.6909653E+01   0.2001233E+01
   0.8955907E+01   0.6909666E+01   0.2019521E+01
   0.8977402E+01   0.6503502E+01   0.2020486E+01
   0.8422825E+01   0.6503489E+01   0.2001287E+01
   0.8957575E+01   0.6909680E+01   0.2029982E+01
   0.9480363E+01   0.6909583E+01   0.1951849E+01
   0.9527967E+01   0.6503415E+01   0.1949439E+01
   0.8979154E+01   0.6503518E+01   0.2031463E+01
       1       2       3       4
       5       6       7       8
       9      10      11      12
 
   ZONE T="INPUT-PANEL-IGES=   1-IFLUE=  16", N=    12, E=    3, ET=QUADRILATERAL, F=FEPOINT
   0.7867866E+01   0.6503492E+01   0.1999347E+01
   0.8422725E+01   0.6503493E+01   0.2006826E+01
   0.8417916E+01   0.6097329E+01   0.2007149E+01
   0.7836744E+01   0.6097328E+01   0.1999316E+01
   0.8422823E+01   0.6503489E+01   0.2001351E+01
   0.8977408E+01   0.6503502E+01   0.2020294E+01
   0.8998903E+01   0.6097338E+01   0.2021250E+01
   0.8418018E+01   0.6097325E+01   0.2001409E+01
   0.8979099E+01   0.6503517E+01   0.2031094E+01
   0.9528131E+01   0.6503416E+01   0.1950547E+01
   0.9575743E+01   0.6097249E+01   0.1948190E+01
   0.9000674E+01   0.6097354E+01   0.2032557E+01
       1       2       3       4
       5       6       7       8
       9      10      11      12
 
   ZONE T="INPUT-PANEL-IGES=   1-IFLUE=  17", N=    12, E=    3, ET=QUADRILATERAL, F=FEPOINT
   0.7836744E+01   0.6097328E+01   0.1999328E+01
   0.8417916E+01   0.6097329E+01   0.2007112E+01
   0.8413107E+01   0.5691164E+01   0.2007432E+01
   0.7805622E+01   0.5691163E+01   0.1999296E+01
   0.8418015E+01   0.6097325E+01   0.2001470E+01
   0.8998910E+01   0.6097338E+01   0.2021067E+01
   0.9020405E+01   0.5691174E+01   0.2022016E+01
   0.8413210E+01   0.5691159E+01   0.2001531E+01
   0.9000622E+01   0.6097354E+01   0.2032204E+01
   0.9575897E+01   0.6097250E+01   0.1949249E+01
   0.9623516E+01   0.5691082E+01   0.1946941E+01
   0.9022196E+01   0.5691190E+01   0.2033650E+01
       1       2       3       4
       5       6       7       8
       9      10      11      12
 
   ZONE T="INPUT-PANEL-IGES=   1-IFLUE=  18", N=    12, E=    3, ET=QUADRILATERAL, F=FEPOINT
   0.7805622E+01   0.5691163E+01   0.1999308E+01
   0.8413107E+01   0.5691164E+01   0.2007397E+01
   0.8408298E+01   0.5285000E+01   0.2007716E+01
   0.7774499E+01   0.5284999E+01   0.1999277E+01
   0.8413208E+01   0.5691159E+01   0.2001589E+01
   0.9020411E+01   0.5691174E+01   0.2021841E+01
   0.9041907E+01   0.5285010E+01   0.2022781E+01
   0.8408404E+01   0.5284995E+01   0.2001652E+01
   0.9022148E+01   0.5691190E+01   0.2033312E+01
   0.9623661E+01   0.5691083E+01   0.1947955E+01
   0.9671286E+01   0.5284915E+01   0.1945690E+01
   0.9043718E+01   0.5285027E+01   0.2034745E+01
       1       2       3       4
       5       6       7       8
       9      10      11      12
 
   ZONE T="INPUT-PANEL-IGES=   1-IFLUE=  19", N=    12, E=    3, ET=QUADRILATERAL, F=FEPOINT
   0.7774499E+01   0.5284999E+01   0.1999288E+01
   0.8408299E+01   0.5285000E+01   0.2007683E+01
   0.8403489E+01   0.4878836E+01   0.2008000E+01
   0.7743377E+01   0.4878835E+01   0.1999257E+01
   0.8408402E+01   0.5284995E+01   0.2001708E+01
   0.9041913E+01   0.5285010E+01   0.2022613E+01
   0.9063408E+01   0.4878846E+01   0.2023546E+01
   0.8403597E+01   0.4878831E+01   0.2001773E+01
   0.9043672E+01   0.5285026E+01   0.2034420E+01
   0.9671423E+01   0.5284917E+01   0.1946663E+01
   0.9719054E+01   0.4878749E+01   0.1944438E+01
   0.9065242E+01   0.4878864E+01   0.2035839E+01
       1       2       3       4
       5       6       7       8
       9      10      11      12
 
   ZONE T="INPUT-PANEL-IGES=   1-IFLUE=  20", N=    12, E=    3, ET=QUADRILATERAL, F=FEPOINT
   0.7743377E+01   0.4878835E+01   0.1999268E+01
   0.8403490E+01   0.4878836E+01   0.2007967E+01
   0.8398680E+01   0.4472672E+01   0.2008284E+01
   0.7712253E+01   0.4472671E+01   0.1999239E+01
   0.8403595E+01   0.4878831E+01   0.2001826E+01
   0.9063414E+01   0.4878846E+01   0.2023385E+01
   0.9084910E+01   0.4472683E+01   0.2024312E+01
   0.8398790E+01   0.4472667E+01   0.2001893E+01
   0.9065199E+01   0.4878863E+01   0.2035528E+01
   0.9719184E+01   0.4878750E+01   0.1945373E+01
   0.9766820E+01   0.4472583E+01   0.1943186E+01
   0.9086765E+01   0.4472700E+01   0.2036934E+01
       1       2       3       4
       5       6       7       8
       9      10      11      12
 
   ZONE T="INPUT-PANEL-IGES=   1-IFLUE=  21", N=    12, E=    3, ET=QUADRILATERAL, F=FEPOINT
   0.7712253E+01   0.4472671E+01   0.1999249E+01
   0.8398680E+01   0.4472672E+01   0.2008253E+01
   0.8393871E+01   0.4066508E+01   0.2008568E+01
   0.7681131E+01   0.4066507E+01   0.1999219E+01
   0.8398788E+01   0.4472667E+01   0.2001945E+01
   0.9084915E+01   0.4472683E+01   0.2024157E+01
   0.9106411E+01   0.4066519E+01   0.2025078E+01
   0.8393983E+01   0.4066503E+01   0.2002014E+01
   0.9086724E+01   0.4472700E+01   0.2036634E+01
   0.9766943E+01   0.4472584E+01   0.1944085E+01
   0.9814584E+01   0.4066417E+01   0.1941932E+01
   0.9108291E+01   0.4066537E+01   0.2038028E+01
       1       2       3       4
       5       6       7       8
       9      10      11      12
 
   ZONE T="INPUT-PANEL-IGES=   1-IFLUE=  22", N=    12, E=    3, ET=QUADRILATERAL, F=FEPOINT
   0.7681131E+01   0.4066507E+01   0.1999229E+01
   0.8393871E+01   0.4066508E+01   0.2008538E+01
   0.8389062E+01   0.3660344E+01   0.2008852E+01
   0.7650009E+01   0.3660343E+01   0.1999199E+01
   0.8393981E+01   0.4066503E+01   0.2002064E+01
   0.9106416E+01   0.4066519E+01   0.2024929E+01
   0.9127912E+01   0.3660355E+01   0.2025844E+01
   0.8389176E+01   0.3660339E+01   0.2002135E+01
   0.9108251E+01   0.4066537E+01   0.2037739E+01
   0.9814702E+01   0.4066418E+01   0.1942799E+01
   0.9862346E+01   0.3660251E+01   0.1940678E+01
   0.9129815E+01   0.3660374E+01   0.2039123E+01
       1       2       3       4
       5       6       7       8
       9      10      11      12
 
   ZONE T="INPUT-PANEL-IGES=   1-IFLUE=  23", N=    12, E=    3, ET=QUADRILATERAL, F=FEPOINT
   0.7650005E+01   0.3660347E+01   0.1999539E+01
   0.8389074E+01   0.3660332E+01   0.2007832E+01
   0.8389060E+01   0.3276862E+01   0.2007157E+01
   0.7650009E+01   0.3276877E+01   0.1998864E+01
   0.8389165E+01   0.3660392E+01   0.2002482E+01
   0.9127944E+01   0.3660195E+01   0.2024802E+01
   0.9127930E+01   0.3276725E+01   0.2021422E+01
   0.8389170E+01   0.3276922E+01   0.1999103E+01
   0.9129853E+01   0.3659948E+01   0.2039401E+01
   0.9862232E+01   0.3661527E+01   0.1939844E+01
   0.9862218E+01   0.3278057E+01   0.1933764E+01
   0.9129858E+01   0.3276478E+01   0.2033319E+01
       1       2       3       4
       5       6       7       8
       9      10      11      12
 
   ZONE T="INPUT-PANEL-IGES=   1-IFLUE=  24", N=    12, E=    3, ET=QUADRILATERAL, F=FEPOINT
   0.7650003E+01   0.3276875E+01   0.1999534E+01
   0.8389079E+01   0.3276866E+01   0.2005146E+01
   0.8389073E+01   0.2893396E+01   0.2004470E+01
   0.7650005E+01   0.2893405E+01   0.1998858E+01
   0.8389151E+01   0.3276916E+01   0.1999748E+01
   0.9127986E+01   0.3276743E+01   0.2019487E+01
   0.9127979E+01   0.2893273E+01   0.2016108E+01
   0.8389154E+01   0.2893446E+01   0.1996369E+01
   0.9129976E+01   0.3276465E+01   0.2034171E+01
   0.9861865E+01   0.3278098E+01   0.1931208E+01
   0.9861858E+01   0.2894628E+01   0.1925127E+01
   0.9129978E+01   0.2892995E+01   0.2028088E+01
       1       2       3       4
       5       6       7       8
       9      10      11      12
 
   ZONE T="INPUT-PANEL-IGES=   1-IFLUE=  25", N=    12, E=    3, ET=QUADRILATERAL, F=FEPOINT
   0.7650001E+01   0.2893404E+01   0.1999528E+01
   0.8389084E+01   0.2893399E+01   0.2002460E+01
   0.8389085E+01   0.2509928E+01   0.2001784E+01
   0.7650001E+01   0.2509933E+01   0.1998852E+01
   0.8389138E+01   0.2893441E+01   0.1997014E+01
   0.9128027E+01   0.2893290E+01   0.2014173E+01
   0.9128028E+01   0.2509819E+01   0.2010794E+01
   0.8389137E+01   0.2509970E+01   0.1993635E+01
   0.9130100E+01   0.2892981E+01   0.2028939E+01
   0.9861493E+01   0.2894668E+01   0.1922574E+01
   0.9861494E+01   0.2511197E+01   0.1916491E+01
   0.9130099E+01   0.2509510E+01   0.2022856E+01
       1       2       3       4
       5       6       7       8
       9      10      11      12
 
   ZONE T="INPUT-PANEL-IGES=   1-IFLUE=  26", N=    12, E=    3, ET=QUADRILATERAL, F=FEPOINT
   0.7649999E+01   0.2509932E+01   0.1999522E+01
   0.8389090E+01   0.2509932E+01   0.1999773E+01
   0.8389098E+01   0.2126462E+01   0.1999097E+01
   0.7649997E+01   0.2126462E+01   0.1998846E+01
   0.8389123E+01   0.2509964E+01   0.1994280E+01
   0.9128070E+01   0.2509836E+01   0.2008859E+01
   0.9128078E+01   0.2126366E+01   0.2005480E+01
   0.8389121E+01   0.2126494E+01   0.1990901E+01
   0.9130225E+01   0.2509497E+01   0.2023706E+01
   0.9861117E+01   0.2511238E+01   0.1913941E+01
   0.9861125E+01   0.2127768E+01   0.1907857E+01
   0.9130222E+01   0.2126027E+01   0.2017625E+01
       1       2       3       4
       5       6       7       8
       9      10      11      12
 
   ZONE T="INPUT-PANEL-IGES=   1-IFLUE=  27", N=    12, E=    3, ET=QUADRILATERAL, F=FEPOINT
   0.7649998E+01   0.2126461E+01   0.1999516E+01
   0.8389095E+01   0.2126465E+01   0.1997087E+01
   0.8389111E+01   0.1742995E+01   0.1996411E+01
   0.7649992E+01   0.1742991E+01   0.1998840E+01
   0.8389109E+01   0.2126488E+01   0.1991546E+01
   0.9128113E+01   0.2126383E+01   0.2003545E+01
   0.9128128E+01   0.1742913E+01   0.2000166E+01
   0.8389104E+01   0.1743018E+01   0.1988167E+01
   0.9130352E+01   0.2126013E+01   0.2018474E+01
   0.9860736E+01   0.2127808E+01   0.1905309E+01
   0.9860752E+01   0.1744338E+01   0.1899224E+01
   0.9130347E+01   0.1742543E+01   0.2012392E+01
       1       2       3       4
       5       6       7       8
       9      10      11      12
 
   ZONE T="INPUT-PANEL-IGES=   1-IFLUE=  28", N=    12, E=    3, ET=QUADRILATERAL, F=FEPOINT
   0.7649996E+01   0.1742990E+01   0.1999511E+01
   0.8389100E+01   0.1742999E+01   0.1994400E+01
   0.8389123E+01   0.1359529E+01   0.1993725E+01
   0.7649988E+01   0.1359520E+01   0.1998836E+01
   0.8389095E+01   0.1743013E+01   0.1988813E+01
   0.9128156E+01   0.1742930E+01   0.1998230E+01
   0.9128180E+01   0.1359460E+01   0.1994852E+01
   0.8389087E+01   0.1359543E+01   0.1985433E+01
   0.9130480E+01   0.1742530E+01   0.2013240E+01
   0.9860351E+01   0.1744379E+01   0.1896679E+01
   0.9860374E+01   0.1360909E+01   0.1890593E+01
   0.9130473E+01   0.1359060E+01   0.2007160E+01
       1       2       3       4
       5       6       7       8
       9      10      11      12
 
   ZONE T="INPUT-PANEL-IGES=   1-IFLUE=  29", N=    12, E=    3, ET=QUADRILATERAL, F=FEPOINT
   0.7649994E+01   0.1359519E+01   0.1999506E+01
   0.8389106E+01   0.1359532E+01   0.1991715E+01
   0.8389136E+01   0.9760620E+00   0.1991039E+01
   0.7649984E+01   0.9760483E+00   0.1998830E+01
   0.8389080E+01   0.1359537E+01   0.1986079E+01
   0.9128201E+01   0.1359477E+01   0.1992916E+01
   0.9128231E+01   0.9760065E+00   0.1989538E+01
   0.8389070E+01   0.9760668E+00   0.1982699E+01
   0.9130610E+01   0.1359046E+01   0.2008007E+01
   0.9859962E+01   0.1360949E+01   0.1888050E+01
   0.9859992E+01   0.9774787E+00   0.1881963E+01
   0.9130600E+01   0.9755760E+00   0.2001927E+01
       1       2       3       4
       5       6       7       8
       9      10      11      12
 
   ZONE T="INPUT-PANEL-IGES=   1-IFLUE=  30", N=    12, E=    3, ET=QUADRILATERAL, F=FEPOINT
   0.7649992E+01   0.9760471E+00   0.1999500E+01
   0.8389111E+01   0.9760655E+00   0.1989029E+01
   0.8389149E+01   0.5925954E+00   0.1988352E+01
   0.7649980E+01   0.5925770E+00   0.1998824E+01
   0.8389065E+01   0.9760611E+00   0.1983345E+01
   0.9128246E+01   0.9760236E+00   0.1987602E+01
   0.9128284E+01   0.5925535E+00   0.1984223E+01
   0.8389052E+01   0.5925910E+00   0.1979966E+01
   0.9130741E+01   0.9755625E+00   0.2002773E+01
   0.9859568E+01   0.9775192E+00   0.1879424E+01
   0.9859605E+01   0.5940492E+00   0.1873334E+01
   0.9130729E+01   0.5920924E+00   0.1996693E+01
       1       2       3       4
       5       6       7       8
       9      10      11      12
 
   ZONE T="INPUT-PANEL-IGES=   1-IFLUE=  31", N=    12, E=    3, ET=QUADRILATERAL, F=FEPOINT
   0.7649990E+01   0.5925758E+00   0.1999494E+01
   0.8389117E+01   0.5925990E+00   0.1986342E+01
   0.8389163E+01   0.2091288E+00   0.1985666E+01
   0.7649975E+01   0.2091056E+00   0.1998818E+01
   0.8389049E+01   0.5925853E+00   0.1980611E+01
   0.9128292E+01   0.5925705E+00   0.1982288E+01
   0.9128337E+01   0.2091003E+00   0.1978909E+01
   0.8389034E+01   0.2091151E+00   0.1977232E+01
   0.9130874E+01   0.5920791E+00   0.1997538E+01
   0.9859170E+01   0.5940892E+00   0.1870798E+01
   0.9859214E+01   0.2106191E+00   0.1864708E+01
   0.9130859E+01   0.2086088E+00   0.1991459E+01
       1       2       3       4
       5       6       7       8
       9      10      11      12
 
   ZONE T="INPUT-PANEL-IGES=   1-IFLUE=  32", N=    12, E=    3, ET=QUADRILATERAL, F=FEPOINT
   0.7649985E+01   0.2091047E+00   0.1999336E+01
   0.8389133E+01   0.2091315E+00   0.1984113E+01
   0.8389161E+01   0.2009310E-04   0.1983744E+01
   0.7649976E+01  -0.6697699E-05   0.1998968E+01
   0.8389034E+01   0.2091107E+00   0.1977730E+01
   0.9128338E+01   0.2091135E+00   0.1977414E+01
   0.9128366E+01   0.2089383E-05   0.1975571E+01
   0.8389025E+01  -0.6964608E-06   0.1975887E+01
   0.9130974E+01   0.2085984E+00   0.1992111E+01
   0.9858870E+01   0.2106504E+00   0.1862750E+01
   0.9858897E+01   0.1539062E-02   0.1859428E+01
   0.9130965E+01  -0.5130206E-03   0.1988796E+01
       1       2       3       4
       5       6       7       8
       9      10      11      12
 
   ZONE T="INPUT-PANEL-IGES=   1-IFLUE=  33", N=    12, E=    3, ET=QUADRILATERAL, F=FEPOINT
   0.7649976E+01   0.6697699E-05   0.1998968E+01
   0.8389161E+01  -0.2009310E-04   0.1983744E+01
   0.8389133E+01  -0.2091315E+00   0.1984113E+01
   0.7649985E+01  -0.2091047E+00   0.1999336E+01
   0.8389025E+01   0.6964608E-06   0.1975887E+01
   0.9128366E+01  -0.2089383E-05   0.1975571E+01
   0.9128338E+01  -0.2091135E+00   0.1977414E+01
   0.8389034E+01  -0.2091107E+00   0.1977730E+01
   0.9130965E+01   0.5130206E-03   0.1988796E+01
   0.9858897E+01  -0.1539062E-02   0.1859428E+01
   0.9858870E+01  -0.2106504E+00   0.1862750E+01
   0.9130974E+01  -0.2085984E+00   0.1992111E+01
       1       2       3       4
       5       6       7       8
       9      10      11      12
 
   ZONE T="INPUT-PANEL-IGES=   1-IFLUE=  34", N=    12, E=    3, ET=QUADRILATERAL, F=FEPOINT
   0.7649975E+01  -0.2091056E+00   0.1998818E+01
   0.8389163E+01  -0.2091288E+00   0.1985666E+01
   0.8389117E+01  -0.5925990E+00   0.1986342E+01
   0.7649990E+01  -0.5925758E+00   0.1999494E+01
   0.8389034E+01  -0.2091151E+00   0.1977232E+01
   0.9128337E+01  -0.2091003E+00   0.1978909E+01
   0.9128292E+01  -0.5925705E+00   0.1982288E+01
   0.8389049E+01  -0.5925853E+00   0.1980611E+01
   0.9130859E+01  -0.2086088E+00   0.1991459E+01
   0.9859214E+01  -0.2106191E+00   0.1864708E+01
   0.9859170E+01  -0.5940892E+00   0.1870798E+01
   0.9130874E+01  -0.5920791E+00   0.1997538E+01
       1       2       3       4
       5       6       7       8
       9      10      11      12
 
   ZONE T="INPUT-PANEL-IGES=   1-IFLUE=  35", N=    12, E=    3, ET=QUADRILATERAL, F=FEPOINT
   0.7649980E+01  -0.5925770E+00   0.1998824E+01
   0.8389149E+01  -0.5925954E+00   0.1988352E+01
   0.8389111E+01  -0.9760655E+00   0.1989029E+01
   0.7649992E+01  -0.9760471E+00   0.1999500E+01
   0.8389052E+01  -0.5925910E+00   0.1979966E+01
   0.9128284E+01  -0.5925535E+00   0.1984223E+01
   0.9128246E+01  -0.9760236E+00   0.1987602E+01
   0.8389065E+01  -0.9760611E+00   0.1983345E+01
   0.9130729E+01  -0.5920924E+00   0.1996693E+01
   0.9859605E+01  -0.5940492E+00   0.1873334E+01
   0.9859568E+01  -0.9775192E+00   0.1879424E+01
   0.9130741E+01  -0.9755625E+00   0.2002773E+01
       1       2       3       4
       5       6       7       8
       9      10      11      12
 
   ZONE T="INPUT-PANEL-IGES=   1-IFLUE=  36", N=    12, E=    3, ET=QUADRILATERAL, F=FEPOINT
   0.7649984E+01  -0.9760483E+00   0.1998830E+01
   0.8389136E+01  -0.9760620E+00   0.1991039E+01
   0.8389106E+01  -0.1359532E+01   0.1991715E+01
   0.7649994E+01  -0.1359519E+01   0.1999506E+01
   0.8389070E+01  -0.9760668E+00   0.1982699E+01
   0.9128231E+01  -0.9760065E+00   0.1989538E+01
   0.9128201E+01  -0.1359477E+01   0.1992916E+01
   0.8389080E+01  -0.1359537E+01   0.1986079E+01
   0.9130600E+01  -0.9755760E+00   0.2001927E+01
   0.9859992E+01  -0.9774787E+00   0.1881963E+01
   0.9859962E+01  -0.1360949E+01   0.1888050E+01
   0.9130610E+01  -0.1359046E+01   0.2008007E+01
       1       2       3       4
       5       6       7       8
       9      10      11      12
 
   ZONE T="INPUT-PANEL-IGES=   1-IFLUE=  37", N=    12, E=    3, ET=QUADRILATERAL, F=FEPOINT
   0.7649988E+01  -0.1359520E+01   0.1998836E+01
   0.8389123E+01  -0.1359529E+01   0.1993725E+01
   0.8389100E+01  -0.1742999E+01   0.1994400E+01
   0.7649996E+01  -0.1742990E+01   0.1999511E+01
   0.8389087E+01  -0.1359543E+01   0.1985433E+01
   0.9128180E+01  -0.1359460E+01   0.1994852E+01
   0.9128156E+01  -0.1742930E+01   0.1998230E+01
   0.8389095E+01  -0.1743013E+01   0.1988813E+01
   0.9130473E+01  -0.1359060E+01   0.2007160E+01
   0.9860374E+01  -0.1360909E+01   0.1890593E+01
   0.9860351E+01  -0.1744379E+01   0.1896679E+01
   0.9130480E+01  -0.1742530E+01   0.2013240E+01
       1       2       3       4
       5       6       7       8
       9      10      11      12
 
   ZONE T="INPUT-PANEL-IGES=   1-IFLUE=  38", N=    12, E=    3, ET=QUADRILATERAL, F=FEPOINT
   0.7649992E+01  -0.1742991E+01   0.1998840E+01
   0.8389111E+01  -0.1742995E+01   0.1996411E+01
   0.8389095E+01  -0.2126465E+01   0.1997087E+01
   0.7649998E+01  -0.2126461E+01   0.1999516E+01
   0.8389104E+01  -0.1743018E+01   0.1988167E+01
   0.9128128E+01  -0.1742913E+01   0.2000166E+01
   0.9128113E+01  -0.2126383E+01   0.2003545E+01
   0.8389109E+01  -0.2126488E+01   0.1991546E+01
   0.9130347E+01  -0.1742543E+01   0.2012392E+01
   0.9860752E+01  -0.1744338E+01   0.1899224E+01
   0.9860736E+01  -0.2127808E+01   0.1905309E+01
   0.9130352E+01  -0.2126013E+01   0.2018474E+01
       1       2       3       4
       5       6       7       8
       9      10      11      12
 
   ZONE T="INPUT-PANEL-IGES=   1-IFLUE=  39", N=    12, E=    3, ET=QUADRILATERAL, F=FEPOINT
   0.7649997E+01  -0.2126462E+01   0.1998846E+01
   0.8389098E+01  -0.2126462E+01   0.1999097E+01