  TITLE = "Geometry of the configuration"
  VARIABLES = "X","Y","Z"
 
   ZONE T="INPUT-PANEL-IGES=   1-IFLUE=   1", N=    12, E=    3, ET=QUADRILATERAL, F=FEPOINT
   0.1173569E+02   0.1800000E+02   0.1999988E+01
   0.1173901E+02   0.1800000E+02   0.2000328E+01
   0.1160489E+02   0.1742641E+02   0.2002643E+01
   0.1157230E+02   0.1742641E+02   0.1999298E+01
   0.1173906E+02   0.1800000E+02   0.2000080E+01
   0.1174219E+02   0.1800000E+02   0.2001211E+01
   0.1163631E+02   0.1742641E+02   0.2009007E+01
   0.1160550E+02   0.1742641E+02   0.1997892E+01
   0.1174269E+02   0.1800000E+02   0.2001345E+01
   0.1174456E+02   0.1800000E+02   0.1998582E+01
   0.1165970E+02   0.1742639E+02   0.1980849E+01
   0.1164137E+02   0.1742642E+02   0.2007994E+01
       1       2       3       4
       5       6       7       8
       9      10      11      12
 
   ZONE T="INPUT-PANEL-IGES=   1-IFLUE=   2", N=    12, E=    3, ET=QUADRILATERAL, F=FEPOINT
   0.1157227E+02   0.1742641E+02   0.1999751E+01
   0.1160499E+02   0.1742641E+02   0.2001282E+01
   0.1147097E+02   0.1685283E+02   0.2002375E+01
   0.1140885E+02   0.1685283E+02   0.1999470E+01
   0.1160516E+02   0.1742641E+02   0.1999121E+01
   0.1163732E+02   0.1742641E+02   0.2005322E+01
   0.1153236E+02   0.1685283E+02   0.2009809E+01
   0.1147129E+02   0.1685283E+02   0.1998036E+01
   0.1164000E+02   0.1742642E+02   0.2006832E+01
   0.1166381E+02   0.1742639E+02   0.1984335E+01
   0.1158264E+02   0.1685280E+02   0.1969728E+01
   0.1153744E+02   0.1685284E+02   0.2012440E+01
       1       2       3       4
       5       6       7       8
       9      10      11      12
 
   ZONE T="INPUT-PANEL-IGES=   1-IFLUE=   3", N=    12, E=    3, ET=QUADRILATERAL, F=FEPOINT
   0.1140884E+02   0.1685283E+02   0.1999684E+01
   0.1147099E+02   0.1685283E+02   0.2001732E+01
   0.1133699E+02   0.1627924E+02   0.2002520E+01
   0.1124542E+02   0.1627924E+02   0.1999503E+01
   0.1147114E+02   0.1685283E+02   0.1999025E+01
   0.1153283E+02   0.1685283E+02   0.2006841E+01
   0.1142809E+02   0.1627924E+02   0.2009924E+01
   0.1133720E+02   0.1627924E+02   0.1998408E+01
   0.1153569E+02   0.1685284E+02   0.2010212E+01
   0.1158789E+02   0.1685281E+02   0.1976411E+01
   0.1150922E+02   0.1627920E+02   0.1964967E+01
   0.1143231E+02   0.1627925E+02   0.2014767E+01
       1       2       3       4
       5       6       7       8
       9      10      11      12
 
   ZONE T="INPUT-PANEL-IGES=   1-IFLUE=   4", N=    12, E=    3, ET=QUADRILATERAL, F=FEPOINT
   0.1124541E+02   0.1627924E+02   0.1999643E+01
   0.1133700E+02   0.1627924E+02   0.2002098E+01
   0.1120300E+02   0.1570565E+02   0.2002751E+01
   0.1108199E+02   0.1570565E+02   0.1999508E+01
   0.1133712E+02   0.1627924E+02   0.1999069E+01
   0.1142831E+02   0.1627924E+02   0.2007940E+01
   0.1132364E+02   0.1570565E+02   0.2010385E+01
   0.1120316E+02   0.1570565E+02   0.1998665E+01
   0.1143103E+02   0.1627925E+02   0.2012508E+01
   0.1151308E+02   0.1627921E+02   0.1971744E+01
   0.1143564E+02   0.1570561E+02   0.1962476E+01
   0.1132723E+02   0.1570566E+02   0.2016336E+01
       1       2       3       4
       5       6       7       8
       9      10      11      12
 
   ZONE T="INPUT-PANEL-IGES=   1-IFLUE=   5", N=    12, E=    3, ET=QUADRILATERAL, F=FEPOINT
   0.1108199E+02   0.1570565E+02   0.1999614E+01
   0.1120300E+02   0.1570565E+02   0.2002434E+01
   0.1106900E+02   0.1513207E+02   0.2003011E+01
   0.1091856E+02   0.1513207E+02   0.1999504E+01
   0.1120312E+02   0.1570565E+02   0.1999162E+01
   0.1132377E+02   0.1570565E+02   0.2008895E+01
   0.1121914E+02   0.1513207E+02   0.2010978E+01
   0.1106914E+02   0.1513207E+02   0.1998878E+01
   0.1132631E+02   0.1570566E+02   0.2014298E+01
   0.1143840E+02   0.1570562E+02   0.1968590E+01
   0.1136163E+02   0.1513203E+02   0.1960809E+01
   0.1122228E+02   0.1513208E+02   0.2017630E+01
       1       2       3       4
       5       6       7       8
       9      10      11      12
 
   ZONE T="INPUT-PANEL-IGES=   1-IFLUE=   6", N=    12, E=    3, ET=QUADRILATERAL, F=FEPOINT
   0.1091856E+02   0.1513207E+02   0.1999589E+01
   0.1106901E+02   0.1513207E+02   0.2002758E+01
   0.1093501E+02   0.1455848E+02   0.2003284E+01
   0.1075513E+02   0.1455848E+02   0.1999495E+01
   0.1106911E+02   0.1513207E+02   0.1999276E+01
   0.1121923E+02   0.1513207E+02   0.2009785E+01
   0.1111462E+02   0.1455849E+02   0.2011634E+01
   0.1093514E+02   0.1455848E+02   0.1999070E+01
   0.1122160E+02   0.1513208E+02   0.2015831E+01
   0.1136367E+02   0.1513203E+02   0.1966207E+01
   0.1128730E+02   0.1455844E+02   0.1959483E+01
   0.1111745E+02   0.1455849E+02   0.2018812E+01
       1       2       3       4
       5       6       7       8
       9      10      11      12
 
   ZONE T="INPUT-PANEL-IGES=   1-IFLUE=   7", N=    12, E=    3, ET=QUADRILATERAL, F=FEPOINT
   0.1075513E+02   0.1455848E+02   0.1999565E+01
   0.1093501E+02   0.1455848E+02   0.2003073E+01
   0.1080101E+02   0.1398490E+02   0.2003565E+01
   0.1059170E+02   0.1398490E+02   0.1999484E+01
   0.1093512E+02   0.1455848E+02   0.1999402E+01
   0.1111468E+02   0.1455848E+02   0.2010639E+01
   0.1101007E+02   0.1398491E+02   0.2012325E+01
   0.1080114E+02   0.1398490E+02   0.1999250E+01
   0.1111692E+02   0.1455849E+02   0.2017221E+01
   0.1128887E+02   0.1455844E+02   0.1964257E+01
   0.1121275E+02   0.1398486E+02   0.1958313E+01
   0.1101268E+02   0.1398491E+02   0.2019941E+01
       1       2       3       4
       5       6       7       8
       9      10      11      12
 
   ZONE T="INPUT-PANEL-IGES=   1-IFLUE=   8", N=    12, E=    3, ET=QUADRILATERAL, F=FEPOINT
   0.1059170E+02   0.1398490E+02   0.1999544E+01
   0.1080101E+02   0.1398490E+02   0.2003384E+01
   0.1066701E+02   0.1341131E+02   0.2003850E+01
   0.1042828E+02   0.1341131E+02   0.1999470E+01
   0.1080112E+02   0.1398490E+02   0.1999535E+01
   0.1101012E+02   0.1398490E+02   0.2011471E+01
   0.1090552E+02   0.1341132E+02   0.2013037E+01
   0.1066713E+02   0.1341131E+02   0.1999424E+01
   0.1101227E+02   0.1398491E+02   0.2018522E+01
   0.1121400E+02   0.1398486E+02   0.1962569E+01
   0.1113806E+02   0.1341126E+02   0.1957223E+01
   0.1090797E+02   0.1341133E+02   0.2021043E+01
       1       2       3       4
       5       6       7       8
       9      10      11      12
 
   ZONE T="INPUT-PANEL-IGES=   1-IFLUE=   9", N=    12, E=    3, ET=QUADRILATERAL, F=FEPOINT
   0.1042827E+02   0.1341131E+02   0.1999523E+01
   0.1066702E+02   0.1341131E+02   0.2003691E+01
   0.1053302E+02   0.1283772E+02   0.2004139E+01
   0.1026485E+02   0.1283772E+02   0.1999456E+01
   0.1066712E+02   0.1341131E+02   0.1999673E+01
   0.1090556E+02   0.1341132E+02   0.2012289E+01
   0.1080097E+02   0.1283773E+02   0.2013763E+01
   0.1053313E+02   0.1283772E+02   0.1999592E+01
   0.1090763E+02   0.1341132E+02   0.2019767E+01
   0.1113907E+02   0.1341127E+02   0.1961052E+01
   0.1106326E+02   0.1283767E+02   0.1956179E+01
   0.1080329E+02   0.1283774E+02   0.2022131E+01
       1       2       3       4
       5       6       7       8
       9      10      11      12
 
   ZONE T="INPUT-PANEL-IGES=   1-IFLUE=  10", N=    12, E=    3, ET=QUADRILATERAL, F=FEPOINT
   0.1026485E+02   0.1283772E+02   0.1999503E+01
   0.1053302E+02   0.1283772E+02   0.2003998E+01
   0.1039902E+02   0.1226414E+02   0.2004430E+01
   0.1010142E+02   0.1226414E+02   0.1999442E+01
   0.1053312E+02   0.1283772E+02   0.1999814E+01
   0.1080100E+02   0.1283773E+02   0.2013098E+01
   0.1069641E+02   0.1226415E+02   0.2014499E+01
   0.1039913E+02   0.1226414E+02   0.1999758E+01
   0.1080300E+02   0.1283773E+02   0.2020973E+01
   0.1106411E+02   0.1283768E+02   0.1959652E+01
   0.1098840E+02   0.1226409E+02   0.1955159E+01
   0.1069864E+02   0.1226416E+02   0.2023210E+01
       1       2       3       4
       5       6       7       8
       9      10      11      12
 
   ZONE T="INPUT-PANEL-IGES=   1-IFLUE=  11", N=    12, E=    3, ET=QUADRILATERAL, F=FEPOINT
   0.1010142E+02   0.1226414E+02   0.1999484E+01
   0.1039902E+02   0.1226414E+02   0.2004303E+01
   0.1026502E+02   0.1169055E+02   0.2004721E+01
   0.9937993E+01   0.1169055E+02   0.1999426E+01
   0.1039912E+02   0.1226414E+02   0.1999957E+01
   0.1069644E+02   0.1226415E+02   0.2013900E+01
   0.1059184E+02   0.1169056E+02   0.2015242E+01
   0.1026513E+02   0.1169055E+02   0.1999921E+01
   0.1069840E+02   0.1226416E+02   0.2022152E+01
   0.1098912E+02   0.1226409E+02   0.1958333E+01
   0.1091347E+02   0.1169050E+02   0.1954154E+01
   0.1059400E+02   0.1169057E+02   0.2024283E+01
       1       2       3       4
       5       6       7       8
       9      10      11      12
 
   ZONE T="INPUT-PANEL-IGES=   1-IFLUE=  12", N=    12, E=    3, ET=QUADRILATERAL, F=FEPOINT
   0.9937992E+01   0.1169055E+02   0.1999465E+01
   0.1026502E+02   0.1169055E+02   0.2004606E+01
   0.1013103E+02   0.1111696E+02   0.2005015E+01
   0.9774566E+01   0.1111696E+02   0.1999411E+01
   0.1026512E+02   0.1169055E+02   0.2000102E+01
   0.1059187E+02   0.1169056E+02   0.2014697E+01
   0.1048728E+02   0.1111697E+02   0.2015989E+01
   0.1013113E+02   0.1111696E+02   0.2000082E+01
   0.1059380E+02   0.1169057E+02   0.2023310E+01
   0.1091409E+02   0.1169050E+02   0.1957074E+01
   0.1083850E+02   0.1111691E+02   0.1953159E+01
   0.1048938E+02   0.1111698E+02   0.2025355E+01
       1       2       3       4
       5       6       7       8
       9      10      11      12
 
   ZONE T="INPUT-PANEL-IGES=   1-IFLUE=  13", N=    12, E=    3, ET=QUADRILATERAL, F=FEPOINT
   0.9774565E+01   0.1111696E+02   0.1999446E+01
   0.1013103E+02   0.1111696E+02   0.2004909E+01
   0.9997029E+01   0.1054338E+02   0.2005308E+01
   0.9611138E+01   0.1054338E+02   0.1999395E+01
   0.1013113E+02   0.1111696E+02   0.2000249E+01
   0.1048730E+02   0.1111697E+02   0.2015490E+01
   0.1038272E+02   0.1054339E+02   0.2016741E+01
   0.9997134E+01   0.1054338E+02   0.2000242E+01
   0.1048920E+02   0.1111698E+02   0.2024454E+01
   0.1083904E+02   0.1111691E+02   0.1955863E+01
   0.1076349E+02   0.1054333E+02   0.1952170E+01
   0.1038477E+02   0.1054340E+02   0.2026423E+01
       1       2       3       4
       5       6       7       8
       9      10      11      12
 
   ZONE T="INPUT-PANEL-IGES=   1-IFLUE=  14", N=    12, E=    3, ET=QUADRILATERAL, F=FEPOINT
   0.9611138E+01   0.1054338E+02   0.1999427E+01
   0.9997030E+01   0.1054338E+02   0.2005210E+01
   0.9863031E+01   0.9969793E+01   0.2005603E+01
   0.9447711E+01   0.9969792E+01   0.1999379E+01
   0.9997128E+01   0.1054338E+02   0.2000396E+01
   0.1038274E+02   0.1054339E+02   0.2016280E+01
   0.1027815E+02   0.9969799E+01   0.2017496E+01
   0.9863138E+01   0.9969790E+01   0.2000401E+01
   0.1038461E+02   0.1054340E+02   0.2025585E+01
   0.1076398E+02   0.1054333E+02   0.1954685E+01
   0.1068846E+02   0.9969737E+01   0.1951185E+01
   0.1028017E+02   0.9969810E+01   0.2027492E+01
       1       2       3       4
       5       6       7       8
       9      10      11      12
 
   ZONE T="INPUT-PANEL-IGES=   1-IFLUE=  15", N=    12, E=    3, ET=QUADRILATERAL, F=FEPOINT
   0.9447710E+01   0.9969792E+01   0.1999409E+01
   0.9863033E+01   0.9969792E+01   0.2005512E+01
   0.9729034E+01   0.9396207E+01   0.2005899E+01
   0.9284283E+01   0.9396206E+01   0.1999363E+01
   0.9863132E+01   0.9969790E+01   0.2000544E+01
   0.1027817E+02   0.9969799E+01   0.2017067E+01
   0.1017359E+02   0.9396213E+01   0.2018253E+01
   0.9729140E+01   0.9396204E+01   0.2000560E+01
   0.1028002E+02   0.9969810E+01   0.2026708E+01
   0.1068889E+02   0.9969739E+01   0.1953537E+01
   0.1061341E+02   0.9396149E+01   0.1950202E+01
   0.1017557E+02   0.9396225E+01   0.2028558E+01
       1       2       3       4
       5       6       7       8
       9      10      11      12
 
   ZONE T="INPUT-PANEL-IGES=   1-IFLUE=  16", N=    12, E=    3, ET=QUADRILATERAL, F=FEPOINT
   0.9284283E+01   0.9396206E+01   0.1999391E+01
   0.9729035E+01   0.9396207E+01   0.2005814E+01
   0.9595037E+01   0.8822620E+01   0.2006193E+01
   0.9120856E+01   0.8822619E+01   0.1999346E+01
   0.9729135E+01   0.9396204E+01   0.2000693E+01
   0.1017360E+02   0.9396213E+01   0.2017853E+01
   0.1006902E+02   0.8822626E+01   0.2019012E+01
   0.9595144E+01   0.8822617E+01   0.2000717E+01
   0.1017544E+02   0.9396224E+01   0.2027822E+01
   0.1061380E+02   0.9396151E+01   0.1952409E+01
   0.1053834E+02   0.8822561E+01   0.1949221E+01
   0.1007098E+02   0.8822638E+01   0.2029624E+01
       1       2       3       4
       5       6       7       8
       9      10      11      12
 
   ZONE T="INPUT-PANEL-IGES=   1-IFLUE=  17", N=    12, E=    3, ET=QUADRILATERAL, F=FEPOINT
   0.9120855E+01   0.8822619E+01   0.1999373E+01
   0.9595038E+01   0.8822620E+01   0.2006114E+01
   0.9461040E+01   0.8249034E+01   0.2006490E+01
   0.8957428E+01   0.8249033E+01   0.1999330E+01
   0.9595139E+01   0.8822617E+01   0.2000842E+01
   0.1006904E+02   0.8822626E+01   0.2018637E+01
   0.9964455E+01   0.8249041E+01   0.2019773E+01
   0.9461147E+01   0.8249030E+01   0.2000874E+01
   0.1007086E+02   0.8822638E+01   0.2028931E+01
   0.1053870E+02   0.8822563E+01   0.1951300E+01
   0.1046327E+02   0.8248973E+01   0.1948241E+01
   0.9966403E+01   0.8249053E+01   0.2030690E+01
       1       2       3       4
       5       6       7       8
       9      10      11      12
 
   ZONE T="INPUT-PANEL-IGES=   1-IFLUE=  18", N=    12, E=    3, ET=QUADRILATERAL, F=FEPOINT
   0.8957428E+01   0.8249033E+01   0.1999355E+01
   0.9461041E+01   0.8249034E+01   0.2006415E+01
   0.9327042E+01   0.7675448E+01   0.2006785E+01
   0.8794001E+01   0.7675447E+01   0.1999313E+01
   0.9461143E+01   0.8249031E+01   0.2000992E+01
   0.9964468E+01   0.8249040E+01   0.2019420E+01
   0.9859888E+01   0.7675455E+01   0.2020535E+01
   0.9327151E+01   0.7675444E+01   0.2001031E+01
   0.9966296E+01   0.8249052E+01   0.2030035E+01
   0.1046359E+02   0.8248975E+01   0.1950206E+01
   0.1038817E+02   0.7675386E+01   0.1947261E+01
   0.9861819E+01   0.7675467E+01   0.2031756E+01
       1       2       3       4
       5       6       7       8
       9      10      11      12
 
   ZONE T="INPUT-PANEL-IGES=   1-IFLUE=  19", N=    12, E=    3, ET=QUADRILATERAL, F=FEPOINT
   0.8794000E+01   0.7675447E+01   0.1999337E+01
   0.9327043E+01   0.7675448E+01   0.2006714E+01
   0.9193046E+01   0.7101862E+01   0.2007082E+01
   0.8630574E+01   0.7101861E+01   0.1999297E+01
   0.9327147E+01   0.7675444E+01   0.2001142E+01
   0.9859900E+01   0.7675455E+01   0.2020201E+01
   0.9755320E+01   0.7101869E+01   0.2021299E+01
   0.9193153E+01   0.7101858E+01   0.2001187E+01
   0.9861721E+01   0.7675467E+01   0.2031135E+01
   0.1038847E+02   0.7675388E+01   0.1949124E+01
   0.1031307E+02   0.7101798E+01   0.1946282E+01
   0.9757242E+01   0.7101882E+01   0.2032821E+01
       1       2       3       4
       5       6       7       8
       9      10      11      12
 
   ZONE T="INPUT-PANEL-IGES=   1-IFLUE=  20", N=    12, E=    3, ET=QUADRILATERAL, F=FEPOINT
   0.8630574E+01   0.7101861E+01   0.1999319E+01
   0.9193047E+01   0.7101862E+01   0.2007015E+01
   0.9059049E+01   0.6528275E+01   0.2007379E+01
   0.8467146E+01   0.6528274E+01   0.1999280E+01
   0.9193150E+01   0.7101858E+01   0.2001293E+01
   0.9755331E+01   0.7101869E+01   0.2020982E+01
   0.9650752E+01   0.6528282E+01   0.2022063E+01
   0.9059157E+01   0.6528271E+01   0.2001343E+01
   0.9757151E+01   0.7101881E+01   0.2032231E+01
   0.1031334E+02   0.7101800E+01   0.1948052E+01
   0.1023796E+02   0.6528210E+01   0.1945304E+01
   0.9652668E+01   0.6528295E+01   0.2033887E+01
       1       2       3       4
       5       6       7       8
       9      10      11      12
 
   ZONE T="INPUT-PANEL-IGES=   1-IFLUE=  21", N=    12, E=    3, ET=QUADRILATERAL, F=FEPOINT
   0.8467146E+01   0.6528274E+01   0.1999302E+01
   0.9059050E+01   0.6528275E+01   0.2007315E+01
   0.8925051E+01   0.5954689E+01   0.2007675E+01
   0.8303719E+01   0.5954688E+01   0.1999263E+01
   0.9059154E+01   0.6528271E+01   0.2001443E+01
   0.9650763E+01   0.6528282E+01   0.2021762E+01
   0.9546184E+01   0.5954697E+01   0.2022828E+01
   0.8925161E+01   0.5954685E+01   0.2001499E+01
   0.9652584E+01   0.6528295E+01   0.2033325E+01
   0.1023821E+02   0.6528211E+01   0.1946990E+01
   0.1016284E+02   0.5954622E+01   0.1944325E+01
   0.9548096E+01   0.5954710E+01   0.2034952E+01
       1       2       3       4
       5       6       7       8
       9      10      11      12
 
   ZONE T="INPUT-PANEL-IGES=   1-IFLUE=  22", N=    12, E=    3, ET=QUADRILATERAL, F=FEPOINT
   0.8303719E+01   0.5954688E+01   0.1999283E+01
   0.8925052E+01   0.5954689E+01   0.2007614E+01
   0.8791054E+01   0.5381103E+01   0.2007972E+01
   0.8140291E+01   0.5381102E+01   0.1999247E+01
   0.8925158E+01   0.5954685E+01   0.2001594E+01
   0.9546194E+01   0.5954696E+01   0.2022542E+01
   0.9441616E+01   0.5381111E+01   0.2023593E+01
   0.8791165E+01   0.5381099E+01   0.2001653E+01
   0.9548018E+01   0.5954709E+01   0.2034415E+01
   0.1016308E+02   0.5954624E+01   0.1945935E+01
   0.1008772E+02   0.5381035E+01   0.1943346E+01
   0.9443527E+01   0.5381124E+01   0.2036017E+01
       1       2       3       4
       5       6       7       8
       9      10      11      12
 
   ZONE T="INPUT-PANEL-IGES=   1-IFLUE=  23", N=    12, E=    3, ET=QUADRILATERAL, F=FEPOINT
   0.8140291E+01   0.5381102E+01   0.1999266E+01
   0.8791055E+01   0.5381103E+01   0.2007914E+01
   0.8657057E+01   0.4807516E+01   0.2008269E+01
   0.7976864E+01   0.4807515E+01   0.1999229E+01
   0.8791162E+01   0.5381099E+01   0.2001744E+01
   0.9441626E+01   0.5381111E+01   0.2023319E+01
   0.9337048E+01   0.4807524E+01   0.2024359E+01
   0.8657169E+01   0.4807512E+01   0.2001808E+01
   0.9443454E+01   0.5381124E+01   0.2035503E+01
   0.1008794E+02   0.5381036E+01   0.1944886E+01
   0.1001259E+02   0.4807446E+01   0.1942368E+01
   0.9338958E+01   0.4807538E+01   0.2037083E+01
       1       2       3       4
       5       6       7       8
       9      10      11      12
 
   ZONE T="INPUT-PANEL-IGES=   1-IFLUE=  24", N=    12, E=    3, ET=QUADRILATERAL, F=FEPOINT
   0.7976864E+01   0.4807515E+01   0.1999248E+01
   0.8657057E+01   0.4807516E+01   0.2008213E+01
   0.8523059E+01   0.4233930E+01   0.2008566E+01
   0.7813436E+01   0.4233929E+01   0.1999213E+01
   0.8657166E+01   0.4807512E+01   0.2001895E+01
   0.9337057E+01   0.4807524E+01   0.2024098E+01
   0.9232479E+01   0.4233938E+01   0.2025126E+01
   0.8523172E+01   0.4233926E+01   0.2001963E+01
   0.9338890E+01   0.4807537E+01   0.2036591E+01
   0.1001279E+02   0.4807448E+01   0.1943844E+01
   0.9937450E+01   0.4233859E+01   0.1941388E+01
   0.9234393E+01   0.4233952E+01   0.2038148E+01
       1       2       3       4
       5       6       7       8
       9      10      11      12
 
   ZONE T="INPUT-PANEL-IGES=   1-IFLUE=  25", N=    12, E=    3, ET=QUADRILATERAL, F=FEPOINT
   0.7813436E+01   0.4233929E+01   0.1999230E+01
   0.8523060E+01   0.4233930E+01   0.2008513E+01
   0.8389062E+01   0.3660344E+01   0.2008863E+01
   0.7650009E+01   0.3660343E+01   0.1999195E+01
   0.8523170E+01   0.4233926E+01   0.2002047E+01
   0.9232487E+01   0.4233938E+01   0.2024875E+01
   0.9127910E+01   0.3660353E+01   0.2025893E+01
   0.8389177E+01   0.3660340E+01   0.2002118E+01
   0.9234328E+01   0.4233952E+01   0.2037675E+01
   0.9937643E+01   0.4233860E+01   0.1942806E+01
   0.9862310E+01   0.3660271E+01   0.1940409E+01
   0.9129827E+01   0.3660367E+01   0.2039213E+01
       1       2       3       4
       5       6       7       8
       9      10      11      12
 
   ZONE T="INPUT-PANEL-IGES=   1-IFLUE=  26", N=    12, E=    3, ET=QUADRILATERAL, F=FEPOINT
   0.7650003E+01   0.3660346E+01   0.1999634E+01
   0.8389078E+01   0.3660333E+01   0.2007545E+01
   0.8389061E+01   0.3167300E+01   0.2006676E+01
   0.7650009E+01   0.3167313E+01   0.1998767E+01
   0.8389162E+01   0.3660391E+01   0.2002574E+01
   0.9127953E+01   0.3660198E+01   0.2024525E+01
   0.9127936E+01   0.3167165E+01   0.2020181E+01
   0.8389168E+01   0.3167358E+01   0.1998230E+01
   0.9129870E+01   0.3659946E+01   0.2039523E+01
   0.9862182E+01   0.3661533E+01   0.1939479E+01
   0.9862166E+01   0.3168500E+01   0.1931661E+01
   0.9129875E+01   0.3166913E+01   0.2031702E+01
       1       2       3       4
       5       6       7       8
       9      10      11      12
 
   ZONE T="INPUT-PANEL-IGES=   1-IFLUE=  27", N=    12, E=    3, ET=QUADRILATERAL, F=FEPOINT
   0.7650002E+01   0.3167312E+01   0.1999628E+01
   0.8389083E+01   0.3167304E+01   0.2004092E+01
   0.8389078E+01   0.2674271E+01   0.2003223E+01
   0.7650003E+01   0.2674279E+01   0.1998759E+01
   0.8389145E+01   0.3167351E+01   0.1999060E+01
   0.9128004E+01   0.3167187E+01   0.2017693E+01
   0.9128000E+01   0.2674154E+01   0.2013348E+01
   0.8389147E+01   0.2674318E+01   0.1994715E+01
   0.9130028E+01   0.3166896E+01   0.2032797E+01
   0.9861707E+01   0.3168552E+01   0.1928376E+01
   0.9861703E+01   0.2675519E+01   0.1920557E+01
   0.9130030E+01   0.2673863E+01   0.2024977E+01
       1       2       3       4
       5       6       7       8
       9      10      11      12
 
   ZONE T="INPUT-PANEL-IGES=   1-IFLUE=  28", N=    12, E=    3, ET=QUADRILATERAL, F=FEPOINT
   0.7650000E+01   0.2674277E+01   0.1999621E+01
   0.8389088E+01   0.2674276E+01   0.2000638E+01
   0.8389096E+01   0.2181243E+01   0.1999769E+01
   0.7649997E+01   0.2181244E+01   0.1998752E+01
   0.8389128E+01   0.2674311E+01   0.1995544E+01
   0.9128057E+01   0.2674176E+01   0.2010860E+01
   0.9128065E+01   0.2181143E+01   0.2006516E+01
   0.8389125E+01   0.2181278E+01   0.1991200E+01
   0.9130189E+01   0.2673846E+01   0.2026071E+01
   0.9861224E+01   0.2675571E+01   0.1917276E+01
   0.9861232E+01   0.2182538E+01   0.1909455E+01
   0.9130187E+01   0.2180813E+01   0.2018251E+01
       1       2       3       4
       5       6       7       8
       9      10      11      12
 
   ZONE T="INPUT-PANEL-IGES=   1-IFLUE=  29", N=    12, E=    3, ET=QUADRILATERAL, F=FEPOINT
   0.7649998E+01   0.2181243E+01   0.1999613E+01
   0.8389093E+01   0.2181247E+01   0.1997184E+01
   0.8389113E+01   0.1688214E+01   0.1996315E+01
   0.7649992E+01   0.1688210E+01   0.1998744E+01
   0.8389110E+01   0.2181270E+01   0.1992029E+01
   0.9128111E+01   0.2181165E+01   0.2004028E+01
   0.9128131E+01   0.1688132E+01   0.1999683E+01
   0.8389103E+01   0.1688237E+01   0.1987684E+01
   0.9130353E+01   0.2180795E+01   0.2019343E+01
   0.9860734E+01   0.2182590E+01   0.1906179E+01
   0.9860754E+01   0.1689557E+01   0.1898356E+01
   0.9130346E+01   0.1687762E+01   0.2011524E+01
       1       2       3       4
       5       6       7       8
       9      10      11      12
 
   ZONE T="INPUT-PANEL-IGES=   1-IFLUE=  30", N=    12, E=    3, ET=QUADRILATERAL, F=FEPOINT
   0.7649996E+01   0.1688208E+01   0.1999606E+01
   0.8389099E+01   0.1688219E+01   0.1993730E+01
   0.8389131E+01   0.1195186E+01   0.1992861E+01
   0.7649986E+01   0.1195175E+01   0.1998737E+01
   0.8389091E+01   0.1688230E+01   0.1988514E+01
   0.9128166E+01   0.1688154E+01   0.1997194E+01
   0.9128199E+01   0.1195121E+01   0.1992851E+01
   0.8389080E+01   0.1195197E+01   0.1984170E+01
   0.9130518E+01   0.1687745E+01   0.2012615E+01
   0.9860237E+01   0.1689609E+01   0.1895083E+01
   0.9860269E+01   0.1196576E+01   0.1887257E+01
   0.9130508E+01   0.1194712E+01   0.2004796E+01
       1       2       3       4
       5       6       7       8
       9      10      11      12
 
   ZONE T="INPUT-PANEL-IGES=   1-IFLUE=  31", N=    12, E=    3, ET=QUADRILATERAL, F=FEPOINT
   0.7649994E+01   0.1195174E+01   0.1999599E+01
   0.8389105E+01   0.1195190E+01   0.1990276E+01
   0.8389149E+01   0.7021568E+00   0.1989407E+01
   0.7649980E+01   0.7021404E+00   0.1998730E+01
   0.8389073E+01   0.1195190E+01   0.1984999E+01
   0.9128222E+01   0.1195143E+01   0.1990362E+01
   0.9128267E+01   0.7021090E+00   0.1986018E+01
   0.8389058E+01   0.7021563E+00   0.1980654E+01
   0.9130686E+01   0.1194695E+01   0.2005885E+01
   0.9859733E+01   0.1196628E+01   0.1883990E+01
   0.9859777E+01   0.7035946E+00   0.1876162E+01
   0.9130672E+01   0.7016611E+00   0.1998067E+01
       1       2       3       4
       5       6       7       8
       9      10      11      12
 
   ZONE T="INPUT-PANEL-IGES=   1-IFLUE=  32", N=    12, E=    3, ET=QUADRILATERAL, F=FEPOINT
   0.7649992E+01   0.7021389E+00   0.1999591E+01
   0.8389111E+01   0.7021614E+00   0.1986823E+01
   0.8389168E+01   0.2091283E+00   0.1985953E+01
   0.7649973E+01   0.2091058E+00   0.1998722E+01
   0.8389054E+01   0.7021490E+00   0.1981484E+01
   0.9128279E+01   0.7021310E+00   0.1983529E+01
   0.9128336E+01   0.2090979E+00   0.1979186E+01
   0.8389035E+01   0.2091159E+00   0.1977139E+01
   0.9130857E+01   0.7016439E+00   0.1999155E+01
   0.9859221E+01   0.7036464E+00   0.1872900E+01
   0.9859277E+01   0.2106135E+00   0.1865070E+01
   0.9130838E+01   0.2086107E+00   0.1991338E+01
       1       2       3       4
       5       6       7       8
       9      10      11      12
 
   ZONE T="INPUT-PANEL-IGES=   1-IFLUE=  33", N=    12, E=    3, ET=QUADRILATERAL, F=FEPOINT
   0.7649985E+01   0.2091047E+00   0.1999336E+01
   0.8389133E+01   0.2091315E+00   0.1984113E+01
   0.8389161E+01   0.2009310E-04   0.1983744E+01
   0.7649976E+01  -0.6697699E-05   0.1998968E+01
   0.8389034E+01   0.2091107E+00   0.1977730E+01
   0.9128338E+01   0.2091135E+00   0.1977414E+01
   0.9128366E+01   0.2089383E-05   0.1975571E+01
   0.8389025E+01  -0.6964608E-06   0.1975887E+01
   0.9130974E+01   0.2085984E+00   0.1992111E+01
   0.9858870E+01   0.2106504E+00   0.1862750E+01
   0.9858897E+01   0.1539062E-02   0.1859428E+01
   0.9130965E+01  -0.5130206E-03   0.1988796E+01
       1       2       3       4
       5       6       7       8
       9      10      11      12
 
   ZONE T="INPUT-PANEL-IGES=   1-IFLUE=  34", N=    12, E=    3, ET=QUADRILATERAL, F=FEPOINT
   0.7649976E+01   0.6697699E-05   0.1998968E+01
   0.8389161E+01  -0.2009310E-04   0.1983744E+01
   0.8389133E+01  -0.2091315E+00   0.1984113E+01
   0.7649985E+01  -0.2091047E+00   0.1999336E+01
   0.8389025E+01   0.6964608E-06   0.1975887E+01
   0.9128366E+01  -0.2089383E-05   0.1975571E+01
   0.9128338E+01  -0.2091135E+00   0.1977414E+01
   0.8389034E+01  -0.2091107E+00   0.1977730E+01
   0.9130965E+01   0.5130206E-03   0.1988796E+01
   0.9858897E+01  -0.1539062E-02   0.1859428E+01
   0.9858870E+01  -0.2106504E+00   0.1862750E+01
   0.9130974E+01  -0.2085984E+00   0.1992111E+01
       1       2       3       4
       5       6       7       8
       9      10      11      12
 
   ZONE T="INPUT-PANEL-IGES=   1-IFLUE=  35", N=    12, E=    3, ET=QUADRILATERAL, F=FEPOINT
   0.7649973E+01  -0.2091058E+00   0.1998722E+01
   0.8389168E+01  -0.2091283E+00   0.1985953E+01
   0.8389111E+01  -0.7021614E+00   0.1986823E+01
   0.7649992E+01  -0.7021389E+00   0.1999591E+01
   0.8389035E+01  -0.2091159E+00   0.1977139E+01
   0.9128336E+01  -0.2090979E+00   0.1979186E+01
   0.9128279E+01  -0.7021310E+00   0.1983529E+01
   0.8389054E+01  -0.7021490E+00   0.1981484E+01
   0.9130838E+01  -0.2086107E+00   0.1991338E+01
   0.9859277E+01  -0.2106135E+00   0.1865070E+01
   0.9859221E+01  -0.7036464E+00   0.1872900E+01
   0.9130857E+01  -0.7016439E+00   0.1999155E+01
       1       2       3       4
       5       6       7       8
       9      10      11      12
 
   ZONE T="INPUT-PANEL-IGES=   1-IFLUE=  36", N=    12, E=    3, ET=QUADRILATERAL, F=FEPOINT
   0.7649980E+01  -0.7021404E+00   0.1998730E+01
   0.8389149E+01  -0.7021568E+00   0.1989407E+01
   0.8389105E+01  -0.1195190E+01   0.1990276E+01
   0.7649994E+01  -0.1195174E+01   0.1999599E+01
   0.8389058E+01  -0.7021563E+00   0.1980654E+01
   0.9128267E+01  -0.7021090E+00   0.1986018E+01
   0.9128222E+01  -0.1195143E+01   0.1990362E+01
   0.8389073E+01  -0.1195190E+01   0.1984999E+01
   0.9130672E+01  -0.7016611E+00   0.1998067E+01
   0.9859777E+01  -0.7035946E+00   0.1876162E+01
   0.9859733E+01  -0.1196628E+01   0.1883990E+01
   0.9130686E+01  -0.1194695E+01   0.2005885E+01
       1       2       3       4
       5       6       7       8
       9      10      11      12
 
   ZONE T="INPUT-PANEL-IGES=   1-IFLUE=  37", N=    12, E=    3, ET=QUADRILATERAL, F=FEPOINT
   0.7649986E+01  -0.1195175E+01   0.1998737E+01
   0.8389131E+01  -0.1195186E+01   0.1992861E+01
   0.8389099E+01  -0.1688219E+01   0.1993730E+01
   0.7649996E+01  -0.1688208E+01   0.1999606E+01
   0.8389080E+01  -0.1195197E+01   0.1984170E+01
   0.9128199E+01  -0.1195121E+01   0.1992851E+01
   0.9128166E+01  -0.1688154E+01   0.1997194E+01
   0.8389091E+01  -0.1688230E+01   0.1988514E+01
   0.9130508E+01  -0.1194712E+01   0.2004796E+01
   0.9860269E+01  -0.1196576E+01   0.1887257E+01
   0.9860237E+01  -0.1689609E+01   0.1895083E+01
   0.9130518E+01  -0.1687745E+01   0.2012615E+01
       1       2       3       4
       5       6       7       8
       9      10      11      12
 
   ZONE T="INPUT-PANEL-IGES=   1-IFLUE=  38", N=    12, E=    3, ET=QUADRILATERAL, F=FEPOINT
   0.7649992E+01  -0.1688210E+01   0.1998744E+01
   0.8389113E+01  -0.1688214E+01   0.1996315E+01
   0.8389093E+01  -0.2181247E+01   0.1997184E+01
   0.7649998E+01  -0.2181243E+01   0.1999613E+01
   0.8389103E+01  -0.1688237E+01   0.1987684E+01
   0.9128131E+01  -0.1688132E+01   0.1999683E+01
   0.9128111E+01  -0.2181165E+01   0.2004028E+01
   0.8389110E+01  -0.2181270E+01   0.1992029E+01
   0.9130346E+01  -0.1687762E+01   0.2011524E+01
   0.9860754E+01  -0.1689557E+01   0.1898356E+01
   0.9860734E+01  -0.2182590E+01   0.1906179E+01
   0.9130353E+01  -0.2180795E+01   0.2019343E+01
       1       2       3       4
       5       6       7       8
       9      10      11      12
 
   ZONE T="INPUT-PANEL-IGES=   1-IFLUE=  39", N=    12, E=    3, ET=QUADRILATERAL, F=FEPOINT
   0.7649997E+01  -0.2181244E+01   0.1998752E+01
   0.8389096E+01  -0.2181243E+01   0.1999769E+01