  TITLE = "Geometry of the configuration"
  VARIABLES = "X","Y","Z"
 
   ZONE T="INPUT-PANEL-IGES=   1-IFLUE=   1", N=    12, E=    3, ET=QUADRILATERAL, F=FEPOINT
   0.8173187E+01   0.1048809E+02   0.1999632E+01
   0.8594452E+01   0.1048809E+02   0.2004779E+01
   0.8584672E+01   0.1016296E+02   0.2004951E+01
   0.8148273E+01   0.1016296E+02   0.1999619E+01
   0.8594499E+01   0.1048809E+02   0.2001694E+01
   0.9015635E+01   0.1048809E+02   0.2013301E+01
   0.9020986E+01   0.1016296E+02   0.2013779E+01
   0.8584721E+01   0.1016296E+02   0.2001755E+01
   0.9016334E+01   0.1048810E+02   0.2019443E+01
   0.9435254E+01   0.1048806E+02   0.1974758E+01
   0.9455678E+01   0.1016293E+02   0.1973851E+01
   0.9021709E+01   0.1016297E+02   0.2020142E+01
       1       2       3       4
       5       6       7       8
       9      10      11      12
 
   ZONE T="INPUT-PANEL-IGES=   1-IFLUE=   2", N=    12, E=    3, ET=QUADRILATERAL, F=FEPOINT
   0.8148274E+01   0.1016296E+02   0.1999612E+01
   0.8584671E+01   0.1016296E+02   0.2004973E+01
   0.8574891E+01   0.9837827E+01   0.2005145E+01
   0.8123360E+01   0.9837827E+01   0.1999598E+01
   0.8584722E+01   0.1016296E+02   0.2001716E+01
   0.9020982E+01   0.1016296E+02   0.2013895E+01
   0.9026333E+01   0.9837832E+01   0.2014377E+01
   0.8574944E+01   0.9837825E+01   0.2001776E+01
   0.9021734E+01   0.1016297E+02   0.2020376E+01
   0.9455602E+01   0.1016293E+02   0.1973147E+01
   0.9476023E+01   0.9837794E+01   0.1972216E+01
   0.9027110E+01   0.9837838E+01   0.2021083E+01
       1       2       3       4
       5       6       7       8
       9      10      11      12
 
   ZONE T="INPUT-PANEL-IGES=   1-IFLUE=   3", N=    12, E=    3, ET=QUADRILATERAL, F=FEPOINT
   0.8123360E+01   0.9837827E+01   0.1999591E+01
   0.8574891E+01   0.9837827E+01   0.2005166E+01
   0.8565111E+01   0.9512696E+01   0.2005339E+01
   0.8098447E+01   0.9512696E+01   0.1999578E+01
   0.8574945E+01   0.9837825E+01   0.2001738E+01
   0.9026330E+01   0.9837832E+01   0.2014490E+01
   0.9031679E+01   0.9512701E+01   0.2014976E+01
   0.8565166E+01   0.9512694E+01   0.2001796E+01
   0.9027135E+01   0.9837838E+01   0.2021309E+01
   0.9475948E+01   0.9837793E+01   0.1971536E+01
   0.9496368E+01   0.9512661E+01   0.1970583E+01
   0.9032512E+01   0.9512708E+01   0.2022024E+01
       1       2       3       4
       5       6       7       8
       9      10      11      12
 
   ZONE T="INPUT-PANEL-IGES=   1-IFLUE=   4", N=    12, E=    3, ET=QUADRILATERAL, F=FEPOINT
   0.8098447E+01   0.9512696E+01   0.1999571E+01
   0.8565110E+01   0.9512696E+01   0.2005360E+01
   0.8555330E+01   0.9187566E+01   0.2005533E+01
   0.8073534E+01   0.9187566E+01   0.1999557E+01
   0.8565167E+01   0.9512694E+01   0.2001760E+01
   0.9031676E+01   0.9512701E+01   0.2015085E+01
   0.9037026E+01   0.9187571E+01   0.2015574E+01
   0.8555389E+01   0.9187564E+01   0.2001817E+01
   0.9032537E+01   0.9512708E+01   0.2022243E+01
   0.9496294E+01   0.9512660E+01   0.1969926E+01
   0.9516710E+01   0.9187529E+01   0.1968951E+01
   0.9037914E+01   0.9187578E+01   0.2022964E+01
       1       2       3       4
       5       6       7       8
       9      10      11      12
 
   ZONE T="INPUT-PANEL-IGES=   1-IFLUE=   5", N=    12, E=    3, ET=QUADRILATERAL, F=FEPOINT
   0.8073534E+01   0.9187566E+01   0.1999550E+01
   0.8555330E+01   0.9187566E+01   0.2005553E+01
   0.8545550E+01   0.8862435E+01   0.2005727E+01
   0.8048621E+01   0.8862435E+01   0.1999536E+01
   0.8555390E+01   0.9187564E+01   0.2001781E+01
   0.9037023E+01   0.9187571E+01   0.2015680E+01
   0.9042373E+01   0.8862440E+01   0.2016172E+01
   0.8545612E+01   0.8862433E+01   0.2001837E+01
   0.9037938E+01   0.9187579E+01   0.2023177E+01
   0.9516638E+01   0.9187528E+01   0.1968314E+01
   0.9537053E+01   0.8862396E+01   0.1967319E+01
   0.9043317E+01   0.8862448E+01   0.2023904E+01
       1       2       3       4
       5       6       7       8
       9      10      11      12
 
   ZONE T="INPUT-PANEL-IGES=   1-IFLUE=   6", N=    12, E=    3, ET=QUADRILATERAL, F=FEPOINT
   0.8048621E+01   0.8862435E+01   0.1999530E+01
   0.8545550E+01   0.8862435E+01   0.2005746E+01
   0.8535769E+01   0.8537304E+01   0.2005921E+01
   0.8023708E+01   0.8537304E+01   0.1999516E+01
   0.8545613E+01   0.8862433E+01   0.2001803E+01
   0.9042370E+01   0.8862441E+01   0.2016275E+01
   0.9047719E+01   0.8537310E+01   0.2016770E+01
   0.8535834E+01   0.8537302E+01   0.2001858E+01
   0.9043341E+01   0.8862448E+01   0.2024110E+01
   0.9536982E+01   0.8862396E+01   0.1966703E+01
   0.9557393E+01   0.8537263E+01   0.1965689E+01
   0.9048720E+01   0.8537318E+01   0.2024844E+01
       1       2       3       4
       5       6       7       8
       9      10      11      12
 
   ZONE T="INPUT-PANEL-IGES=   1-IFLUE=   7", N=    12, E=    3, ET=QUADRILATERAL, F=FEPOINT
   0.8023708E+01   0.8537304E+01   0.1999509E+01
   0.8535769E+01   0.8537304E+01   0.2005940E+01
   0.8525989E+01   0.8212174E+01   0.2006115E+01
   0.7998794E+01   0.8212173E+01   0.1999495E+01
   0.8535835E+01   0.8537302E+01   0.2001825E+01
   0.9047716E+01   0.8537310E+01   0.2016870E+01
   0.9053066E+01   0.8212179E+01   0.2017369E+01
   0.8526057E+01   0.8212171E+01   0.2001878E+01
   0.9048743E+01   0.8537318E+01   0.2025043E+01
   0.9557323E+01   0.8537263E+01   0.1965091E+01
   0.9577733E+01   0.8212131E+01   0.1964059E+01
   0.9054122E+01   0.8212187E+01   0.2025783E+01
       1       2       3       4
       5       6       7       8
       9      10      11      12
 
   ZONE T="INPUT-PANEL-IGES=   1-IFLUE=   8", N=    12, E=    3, ET=QUADRILATERAL, F=FEPOINT
   0.7998794E+01   0.8212173E+01   0.1999489E+01
   0.8525989E+01   0.8212174E+01   0.2006133E+01
   0.8516209E+01   0.7887044E+01   0.2006309E+01
   0.7973881E+01   0.7887043E+01   0.1999474E+01
   0.8526058E+01   0.8212171E+01   0.2001846E+01
   0.9053063E+01   0.8212179E+01   0.2017465E+01
   0.9058412E+01   0.7887049E+01   0.2017966E+01
   0.8516280E+01   0.7887041E+01   0.2001899E+01
   0.9054145E+01   0.8212187E+01   0.2025976E+01
   0.9577664E+01   0.8212130E+01   0.1963479E+01
   0.9598073E+01   0.7886999E+01   0.1962430E+01
   0.9059526E+01   0.7887058E+01   0.2026722E+01
       1       2       3       4
       5       6       7       8
       9      10      11      12
 
   ZONE T="INPUT-PANEL-IGES=   1-IFLUE=   9", N=    12, E=    3, ET=QUADRILATERAL, F=FEPOINT
   0.7973881E+01   0.7887043E+01   0.1999468E+01
   0.8516208E+01   0.7887044E+01   0.2006327E+01
   0.8506428E+01   0.7561913E+01   0.2006503E+01
   0.7948968E+01   0.7561912E+01   0.1999454E+01
   0.8516281E+01   0.7887041E+01   0.2001868E+01
   0.9058410E+01   0.7887049E+01   0.2018061E+01
   0.9063758E+01   0.7561918E+01   0.2018564E+01
   0.8506502E+01   0.7561910E+01   0.2001920E+01
   0.9059549E+01   0.7887058E+01   0.2026910E+01
   0.9598005E+01   0.7886998E+01   0.1961866E+01
   0.9618411E+01   0.7561866E+01   0.1960802E+01
   0.9064930E+01   0.7561927E+01   0.2027661E+01
       1       2       3       4
       5       6       7       8
       9      10      11      12
 
   ZONE T="INPUT-PANEL-IGES=   1-IFLUE=  10", N=    12, E=    3, ET=QUADRILATERAL, F=FEPOINT
   0.7948968E+01   0.7561912E+01   0.1999448E+01
   0.8506428E+01   0.7561913E+01   0.2006520E+01
   0.8496648E+01   0.7236782E+01   0.2006697E+01
   0.7924055E+01   0.7236781E+01   0.1999433E+01
   0.8506503E+01   0.7561910E+01   0.2001889E+01
   0.9063756E+01   0.7561918E+01   0.2018656E+01
   0.9069105E+01   0.7236788E+01   0.2019162E+01
   0.8496725E+01   0.7236779E+01   0.2001941E+01
   0.9064952E+01   0.7561927E+01   0.2027843E+01
   0.9618344E+01   0.7561866E+01   0.1960254E+01
   0.9638748E+01   0.7236733E+01   0.1959176E+01
   0.9070333E+01   0.7236797E+01   0.2028600E+01
       1       2       3       4
       5       6       7       8
       9      10      11      12
 
   ZONE T="INPUT-PANEL-IGES=   1-IFLUE=  11", N=    12, E=    3, ET=QUADRILATERAL, F=FEPOINT
   0.7924055E+01   0.7236781E+01   0.1999427E+01
   0.8496648E+01   0.7236782E+01   0.2006714E+01
   0.8486867E+01   0.6911651E+01   0.2006891E+01
   0.7899142E+01   0.6911650E+01   0.1999412E+01
   0.8496726E+01   0.7236779E+01   0.2001911E+01
   0.9069102E+01   0.7236788E+01   0.2019251E+01
   0.9074452E+01   0.6911657E+01   0.2019761E+01
   0.8486948E+01   0.6911648E+01   0.2001962E+01
   0.9070355E+01   0.7236797E+01   0.2028778E+01
   0.9638683E+01   0.7236733E+01   0.1958642E+01
   0.9659086E+01   0.6911601E+01   0.1957549E+01
   0.9075738E+01   0.6911666E+01   0.2029538E+01
       1       2       3       4
       5       6       7       8
       9      10      11      12
 
   ZONE T="INPUT-PANEL-IGES=   1-IFLUE=  12", N=    12, E=    3, ET=QUADRILATERAL, F=FEPOINT
   0.7899142E+01   0.6911650E+01   0.1999407E+01
   0.8486867E+01   0.6911651E+01   0.2006907E+01
   0.8477087E+01   0.6586521E+01   0.2007085E+01
   0.7874228E+01   0.6586520E+01   0.1999392E+01
   0.8486949E+01   0.6911648E+01   0.2001933E+01
   0.9074449E+01   0.6911657E+01   0.2019848E+01
   0.9079798E+01   0.6586527E+01   0.2020359E+01
   0.8477170E+01   0.6586518E+01   0.2001983E+01
   0.9075759E+01   0.6911667E+01   0.2029711E+01
   0.9659022E+01   0.6911600E+01   0.1957030E+01
   0.9679422E+01   0.6586469E+01   0.1955923E+01
   0.9081142E+01   0.6586537E+01   0.2030476E+01
       1       2       3       4
       5       6       7       8
       9      10      11      12
 
   ZONE T="INPUT-PANEL-IGES=   1-IFLUE=  13", N=    12, E=    3, ET=QUADRILATERAL, F=FEPOINT
   0.7874228E+01   0.6586520E+01   0.1999386E+01
   0.8477087E+01   0.6586521E+01   0.2007101E+01
   0.8467306E+01   0.6261390E+01   0.2007279E+01
   0.7849314E+01   0.6261389E+01   0.1999371E+01
   0.8477171E+01   0.6586518E+01   0.2001955E+01
   0.9079795E+01   0.6586527E+01   0.2020443E+01
   0.9085145E+01   0.6261396E+01   0.2020956E+01
   0.8467393E+01   0.6261387E+01   0.2002004E+01
   0.9081163E+01   0.6586537E+01   0.2030645E+01
   0.9679359E+01   0.6586468E+01   0.1955417E+01
   0.9699758E+01   0.6261336E+01   0.1954298E+01
   0.9086546E+01   0.6261407E+01   0.2031414E+01
       1       2       3       4
       5       6       7       8
       9      10      11      12
 
   ZONE T="INPUT-PANEL-IGES=   1-IFLUE=  14", N=    12, E=    3, ET=QUADRILATERAL, F=FEPOINT
   0.7849314E+01   0.6261389E+01   0.1999366E+01
   0.8467305E+01   0.6261390E+01   0.2007295E+01
   0.8457525E+01   0.5936259E+01   0.2007473E+01
   0.7824401E+01   0.5936258E+01   0.1999350E+01
   0.8467394E+01   0.6261387E+01   0.2001976E+01
   0.9085142E+01   0.6261396E+01   0.2021039E+01
   0.9090491E+01   0.5936265E+01   0.2021554E+01
   0.8457616E+01   0.5936256E+01   0.2002025E+01
   0.9086567E+01   0.6261407E+01   0.2031579E+01
   0.9699696E+01   0.6261336E+01   0.1953804E+01
   0.9720094E+01   0.5936203E+01   0.1952673E+01
   0.9091951E+01   0.5936276E+01   0.2032352E+01
       1       2       3       4
       5       6       7       8
       9      10      11      12
 
   ZONE T="INPUT-PANEL-IGES=   1-IFLUE=  15", N=    12, E=    3, ET=QUADRILATERAL, F=FEPOINT
   0.7824401E+01   0.5936258E+01   0.1999345E+01
   0.8457525E+01   0.5936259E+01   0.2007488E+01
   0.8447745E+01   0.5611128E+01   0.2007667E+01
   0.7799488E+01   0.5611127E+01   0.1999330E+01
   0.8457617E+01   0.5936256E+01   0.2001998E+01
   0.9090489E+01   0.5936265E+01   0.2021634E+01
   0.9095837E+01   0.5611135E+01   0.2022151E+01
   0.8447838E+01   0.5611124E+01   0.2002046E+01
   0.9091972E+01   0.5936276E+01   0.2032512E+01
   0.9720033E+01   0.5936203E+01   0.1952191E+01
   0.9740429E+01   0.5611071E+01   0.1951049E+01
   0.9097356E+01   0.5611146E+01   0.2033289E+01
       1       2       3       4
       5       6       7       8
       9      10      11      12
 
   ZONE T="INPUT-PANEL-IGES=   1-IFLUE=  16", N=    12, E=    3, ET=QUADRILATERAL, F=FEPOINT
   0.7799488E+01   0.5611127E+01   0.1999325E+01
   0.8447745E+01   0.5611128E+01   0.2007682E+01
   0.8437964E+01   0.5285998E+01   0.2007861E+01
   0.7774575E+01   0.5285997E+01   0.1999309E+01
   0.8447839E+01   0.5611124E+01   0.2002019E+01
   0.9095835E+01   0.5611135E+01   0.2022230E+01
   0.9101184E+01   0.5286005E+01   0.2022749E+01
   0.8438061E+01   0.5285994E+01   0.2002066E+01
   0.9097376E+01   0.5611146E+01   0.2033446E+01
   0.9740369E+01   0.5611070E+01   0.1950578E+01
   0.9760764E+01   0.5285939E+01   0.1949426E+01
   0.9102761E+01   0.5286016E+01   0.2034227E+01
       1       2       3       4
       5       6       7       8
       9      10      11      12
 
   ZONE T="INPUT-PANEL-IGES=   1-IFLUE=  17", N=    12, E=    3, ET=QUADRILATERAL, F=FEPOINT
   0.7774575E+01   0.5285997E+01   0.1999304E+01
   0.8437964E+01   0.5285998E+01   0.2007875E+01
   0.8428184E+01   0.4960867E+01   0.2008055E+01
   0.7749661E+01   0.4960866E+01   0.1999288E+01
   0.8438062E+01   0.5285994E+01   0.2002041E+01
   0.9101181E+01   0.5286005E+01   0.2022826E+01
   0.9106531E+01   0.4960874E+01   0.2023346E+01
   0.8428284E+01   0.4960863E+01   0.2002087E+01
   0.9102781E+01   0.5286017E+01   0.2034381E+01
   0.9760705E+01   0.5285938E+01   0.1948966E+01
   0.9781098E+01   0.4960806E+01   0.1947802E+01
   0.9108166E+01   0.4960886E+01   0.2035165E+01
       1       2       3       4
       5       6       7       8
       9      10      11      12
 
   ZONE T="INPUT-PANEL-IGES=   1-IFLUE=  18", N=    12, E=    3, ET=QUADRILATERAL, F=FEPOINT
   0.7749661E+01   0.4960866E+01   0.1999284E+01
   0.8428184E+01   0.4960867E+01   0.2008069E+01
   0.8418404E+01   0.4635736E+01   0.2008249E+01
   0.7724748E+01   0.4635735E+01   0.1999268E+01
   0.8428285E+01   0.4960863E+01   0.2002062E+01
   0.9106528E+01   0.4960874E+01   0.2023422E+01
   0.9111876E+01   0.4635743E+01   0.2023944E+01
   0.8418507E+01   0.4635732E+01   0.2002108E+01
   0.9108185E+01   0.4960886E+01   0.2035314E+01
   0.9781040E+01   0.4960806E+01   0.1947353E+01
   0.9801432E+01   0.4635673E+01   0.1946179E+01
   0.9113571E+01   0.4635756E+01   0.2036102E+01
       1       2       3       4
       5       6       7       8
       9      10      11      12
 
   ZONE T="INPUT-PANEL-IGES=   1-IFLUE=  19", N=    12, E=    3, ET=QUADRILATERAL, F=FEPOINT
   0.7724748E+01   0.4635735E+01   0.1999263E+01
   0.8418403E+01   0.4635736E+01   0.2008262E+01
   0.8408623E+01   0.4310605E+01   0.2008443E+01
   0.7699835E+01   0.4310604E+01   0.1999247E+01
   0.8418507E+01   0.4635732E+01   0.2002084E+01
   0.9111874E+01   0.4635743E+01   0.2024017E+01
   0.9117223E+01   0.4310613E+01   0.2024541E+01
   0.8408730E+01   0.4310601E+01   0.2002129E+01
   0.9113590E+01   0.4635756E+01   0.2036248E+01
   0.9801374E+01   0.4635673E+01   0.1945740E+01
   0.9821766E+01   0.4310541E+01   0.1944556E+01
   0.9118977E+01   0.4310625E+01   0.2037039E+01
       1       2       3       4
       5       6       7       8
       9      10      11      12
 
   ZONE T="INPUT-PANEL-IGES=   1-IFLUE=  20", N=    12, E=    3, ET=QUADRILATERAL, F=FEPOINT
   0.7699835E+01   0.4310604E+01   0.1999243E+01
   0.8408623E+01   0.4310605E+01   0.2008456E+01
   0.8398843E+01   0.3985475E+01   0.2008637E+01
   0.7674922E+01   0.3985474E+01   0.1999226E+01
   0.8408730E+01   0.4310601E+01   0.2002105E+01
   0.9117221E+01   0.4310613E+01   0.2024613E+01
   0.9122570E+01   0.3985483E+01   0.2025139E+01
   0.8398953E+01   0.3985471E+01   0.2002150E+01
   0.9118996E+01   0.4310625E+01   0.2037182E+01
   0.9821709E+01   0.4310540E+01   0.1944127E+01
   0.9842098E+01   0.3985409E+01   0.1942934E+01
   0.9124382E+01   0.3985496E+01   0.2037975E+01
       1       2       3       4
       5       6       7       8
       9      10      11      12
 
   ZONE T="INPUT-PANEL-IGES=   1-IFLUE=  21", N=    12, E=    3, ET=QUADRILATERAL, F=FEPOINT
   0.7674922E+01   0.3985474E+01   0.1999222E+01
   0.8398843E+01   0.3985475E+01   0.2008650E+01
   0.8389062E+01   0.3660344E+01   0.2008830E+01
   0.7650009E+01   0.3660343E+01   0.1999206E+01
   0.8398953E+01   0.3985471E+01   0.2002126E+01
   0.9122568E+01   0.3985483E+01   0.2025209E+01
   0.9127915E+01   0.3660352E+01   0.2025736E+01
   0.8389175E+01   0.3660340E+01   0.2002171E+01
   0.9124400E+01   0.3985496E+01   0.2038115E+01
   0.9842043E+01   0.3985409E+01   0.1942514E+01
   0.9862431E+01   0.3660276E+01   0.1941312E+01
   0.9129787E+01   0.3660365E+01   0.2038912E+01
       1       2       3       4
       5       6       7       8
       9      10      11      12
 
   ZONE T="INPUT-PANEL-IGES=   1-IFLUE=  22", N=    12, E=    3, ET=QUADRILATERAL, F=FEPOINT
   0.7650005E+01   0.3660347E+01   0.1999478E+01
   0.8389072E+01   0.3660332E+01   0.2008014E+01
   0.8389060E+01   0.3346584E+01   0.2007462E+01
   0.7650009E+01   0.3346599E+01   0.1998926E+01
   0.8389167E+01   0.3660393E+01   0.2002423E+01
   0.9127939E+01   0.3660194E+01   0.2024978E+01
   0.9127927E+01   0.3346446E+01   0.2022213E+01
   0.8389171E+01   0.3346645E+01   0.1999660E+01
   0.9129843E+01   0.3659949E+01   0.2039324E+01
   0.9862264E+01   0.3661524E+01   0.1940076E+01
   0.9862252E+01   0.3347776E+01   0.1935102E+01
   0.9129847E+01   0.3346201E+01   0.2034347E+01
       1       2       3       4
       5       6       7       8
       9      10      11      12
 
   ZONE T="INPUT-PANEL-IGES=   1-IFLUE=  23", N=    12, E=    3, ET=QUADRILATERAL, F=FEPOINT
   0.7650004E+01   0.3346598E+01   0.1999474E+01
   0.8389077E+01   0.3346587E+01   0.2005817E+01
   0.8389070E+01   0.3032838E+01   0.2005264E+01
   0.7650006E+01   0.3032849E+01   0.1998921E+01
   0.8389156E+01   0.3346640E+01   0.2000187E+01
   0.9127973E+01   0.3346460E+01   0.2020630E+01
   0.9127966E+01   0.3032711E+01   0.2017865E+01
   0.8389158E+01   0.3032891E+01   0.1997422E+01
   0.9129943E+01   0.3346190E+01   0.2035044E+01
   0.9861964E+01   0.3347809E+01   0.1933011E+01
   0.9861957E+01   0.3034060E+01   0.1928035E+01
   0.9129945E+01   0.3032441E+01   0.2030067E+01
       1       2       3       4
       5       6       7       8
       9      10      11      12
 
   ZONE T="INPUT-PANEL-IGES=   1-IFLUE=  24", N=    12, E=    3, ET=QUADRILATERAL, F=FEPOINT
   0.7650002E+01   0.3032848E+01   0.1999469E+01
   0.8389082E+01   0.3032841E+01   0.2003620E+01
   0.8389079E+01   0.2719093E+01   0.2003067E+01
   0.7650003E+01   0.2719100E+01   0.1998916E+01
   0.8389144E+01   0.3032886E+01   0.1997950E+01
   0.9128008E+01   0.3032725E+01   0.2016282E+01
   0.9128006E+01   0.2718977E+01   0.2013517E+01
   0.8389145E+01   0.2719138E+01   0.1995185E+01
   0.9130043E+01   0.3032430E+01   0.2030764E+01
   0.9861662E+01   0.3034093E+01   0.1925945E+01
   0.9861660E+01   0.2720345E+01   0.1920970E+01
   0.9130044E+01   0.2718682E+01   0.2025787E+01
       1       2       3       4
       5       6       7       8
       9      10      11      12
 
   ZONE T="INPUT-PANEL-IGES=   1-IFLUE=  25", N=    12, E=    3, ET=QUADRILATERAL, F=FEPOINT
   0.7650001E+01   0.2719099E+01   0.1999465E+01
   0.8389086E+01   0.2719095E+01   0.2001422E+01
   0.8389089E+01   0.2405347E+01   0.2000869E+01
   0.7650000E+01   0.2405351E+01   0.1998912E+01
   0.8389132E+01   0.2719134E+01   0.1995713E+01
   0.9128043E+01   0.2718991E+01   0.2011933E+01
   0.9128046E+01   0.2405243E+01   0.2009169E+01
   0.8389131E+01   0.2405386E+01   0.1992949E+01
   0.9130145E+01   0.2718671E+01   0.2026483E+01
   0.9861357E+01   0.2720378E+01   0.1918882E+01
   0.9861360E+01   0.2406630E+01   0.1913904E+01
   0.9130144E+01   0.2404923E+01   0.2021507E+01
       1       2       3       4
       5       6       7       8
       9      10      11      12
 
   ZONE T="INPUT-PANEL-IGES=   1-IFLUE=  26", N=    12, E=    3, ET=QUADRILATERAL, F=FEPOINT
   0.7649999E+01   0.2405350E+01   0.1999460E+01
   0.8389091E+01   0.2405350E+01   0.1999224E+01
   0.8389099E+01   0.2091601E+01   0.1998671E+01
   0.7649996E+01   0.2091601E+01   0.1998907E+01
   0.8389121E+01   0.2405381E+01   0.1993477E+01
   0.9128078E+01   0.2405257E+01   0.2007586E+01
   0.9128086E+01   0.2091508E+01   0.2004821E+01
   0.8389118E+01   0.2091632E+01   0.1990712E+01
   0.9130248E+01   0.2404912E+01   0.2022202E+01
   0.9861048E+01   0.2406663E+01   0.1911818E+01
   0.9861056E+01   0.2092914E+01   0.1906841E+01
   0.9130245E+01   0.2091163E+01   0.2017226E+01
       1       2       3       4
       5       6       7       8
       9      10      11      12
 
   ZONE T="INPUT-PANEL-IGES=   1-IFLUE=  27", N=    12, E=    3, ET=QUADRILATERAL, F=FEPOINT
   0.7649997E+01   0.2091600E+01   0.1999455E+01
   0.8389096E+01   0.2091604E+01   0.1997026E+01
   0.8389109E+01   0.1777856E+01   0.1996473E+01
   0.7649993E+01   0.1777852E+01   0.1998902E+01
   0.8389109E+01   0.2091627E+01   0.1991239E+01
   0.9128114E+01   0.2091522E+01   0.2003238E+01
   0.9128127E+01   0.1777774E+01   0.2000473E+01
   0.8389104E+01   0.1777879E+01   0.1988474E+01
   0.9130352E+01   0.2091152E+01   0.2017921E+01
   0.9860737E+01   0.2092947E+01   0.1904756E+01
   0.9860750E+01   0.1779199E+01   0.1899777E+01
   0.9130347E+01   0.1777404E+01   0.2012945E+01
       1       2       3       4
       5       6       7       8
       9      10      11      12
 
   ZONE T="INPUT-PANEL-IGES=   1-IFLUE=  28", N=    12, E=    3, ET=QUADRILATERAL, F=FEPOINT
   0.7649996E+01   0.1777851E+01   0.1999451E+01
   0.8389101E+01   0.1777859E+01   0.1994828E+01
   0.8389119E+01   0.1464111E+01   0.1994275E+01
   0.7649990E+01   0.1464103E+01   0.1998898E+01
   0.8389097E+01   0.1777875E+01   0.1989002E+01
   0.9128150E+01   0.1777788E+01   0.1998889E+01
   0.9128168E+01   0.1464040E+01   0.1996124E+01
   0.8389091E+01   0.1464127E+01   0.1986237E+01
   0.9130456E+01   0.1777393E+01   0.2013639E+01
   0.9860423E+01   0.1779232E+01   0.1897694E+01
   0.9860441E+01   0.1465484E+01   0.1892716E+01
   0.9130450E+01   0.1463645E+01   0.2008664E+01
       1       2       3       4
       5       6       7       8
       9      10      11      12
 
   ZONE T="INPUT-PANEL-IGES=   1-IFLUE=  29", N=    12, E=    3, ET=QUADRILATERAL, F=FEPOINT
   0.7649994E+01   0.1464102E+01   0.1999446E+01
   0.8389106E+01   0.1464114E+01   0.1992630E+01
   0.8389129E+01   0.1150365E+01   0.1992077E+01
   0.7649986E+01   0.1150353E+01   0.1998893E+01
   0.8389084E+01   0.1464122E+01   0.1986765E+01
   0.9128187E+01   0.1464054E+01   0.1994541E+01
   0.9128210E+01   0.1150305E+01   0.1991777E+01
   0.8389077E+01   0.1150373E+01   0.1984001E+01
   0.9130562E+01   0.1463634E+01   0.2009358E+01
   0.9860106E+01   0.1465517E+01   0.1890635E+01
   0.9860128E+01   0.1151769E+01   0.1885654E+01
   0.9130555E+01   0.1149885E+01   0.2004382E+01
       1       2       3       4
       5       6       7       8
       9      10      11      12
 
   ZONE T="INPUT-PANEL-IGES=   1-IFLUE=  30", N=    12, E=    3, ET=QUADRILATERAL, F=FEPOINT
   0.7649992E+01   0.1150352E+01   0.1999441E+01
   0.8389111E+01   0.1150368E+01   0.1990432E+01
   0.8389139E+01   0.8366199E+00   0.1989879E+01
   0.7649983E+01   0.8366040E+00   0.1998888E+01
   0.8389072E+01   0.1150368E+01   0.1984529E+01
   0.9128224E+01   0.1150319E+01   0.1990194E+01
   0.9128252E+01   0.8365706E+00   0.1987429E+01
   0.8389063E+01   0.8366205E+00   0.1981764E+01
   0.9130669E+01   0.1149874E+01   0.2005075E+01
   0.9859786E+01   0.1151801E+01   0.1883575E+01
   0.9859813E+01   0.8380533E+00   0.1878594E+01
   0.9130660E+01   0.8361262E+00   0.2000101E+01
       1       2       3       4
       5       6       7       8
       9      10      11      12
 
   ZONE T="INPUT-PANEL-IGES=   1-IFLUE=  31", N=    12, E=    3, ET=QUADRILATERAL, F=FEPOINT
   0.7649991E+01   0.8366031E+00   0.1999437E+01
   0.8389116E+01   0.8366228E+00   0.1988234E+01
   0.8389149E+01   0.5228745E+00   0.1987681E+01
   0.7649980E+01   0.5228548E+00   0.1998884E+01
   0.8389059E+01   0.8366158E+00   0.1982292E+01
   0.9128262E+01   0.8365845E+00   0.1985845E+01
   0.9128294E+01   0.5228362E+00   0.1983081E+01
   0.8389049E+01   0.5228675E+00   0.1979526E+01
   0.9130776E+01   0.8361152E+00   0.2000793E+01
   0.9859463E+01   0.8380865E+00   0.1876517E+01
   0.9859495E+01   0.5243383E+00   0.1871535E+01
   0.9130766E+01   0.5223668E+00   0.1995818E+01
       1       2       3       4
       5       6       7       8
       9      10      11      12
 
   ZONE T="INPUT-PANEL-IGES=   1-IFLUE=  32", N=    12, E=    3, ET=QUADRILATERAL, F=FEPOINT
   0.7649989E+01   0.5228538E+00   0.1999432E+01
   0.8389122E+01   0.5228774E+00   0.1986037E+01
   0.8389159E+01   0.2091291E+00   0.1985483E+01
   0.7649976E+01   0.2091055E+00   0.1998879E+01
   0.8389047E+01   0.5228629E+00   0.1980054E+01
   0.9128300E+01   0.5228502E+00   0.1981497E+01
   0.9128337E+01   0.2091019E+00   0.1978733E+01
   0.8389034E+01   0.2091146E+00   0.1977290E+01
   0.9130885E+01   0.5223560E+00   0.1996509E+01
   0.9859137E+01   0.5243709E+00   0.1869460E+01
   0.9859174E+01   0.2106227E+00   0.1864477E+01
   0.9130873E+01   0.2086076E+00   0.1991536E+01
       1       2       3       4
       5       6       7       8
       9      10      11      12
 
   ZONE T="INPUT-PANEL-IGES=   1-IFLUE=  33", N=    12, E=    3, ET=QUADRILATERAL, F=FEPOINT
   0.7649983E+01   0.2091049E+00   0.1999244E+01
   0.8389138E+01   0.2091310E+00   0.1984387E+01
   0.8389152E+01   0.1045753E+00   0.1984203E+01
   0.7649979E+01   0.1045492E+00   0.1999060E+01
   0.8389034E+01   0.2091115E+00   0.1977642E+01
   0.9128338E+01   0.2091112E+00   0.1977678E+01
   0.9128352E+01   0.1045555E+00   0.1976756E+01
   0.8389029E+01   0.1045558E+00   0.1976720E+01
   0.9130954E+01   0.2086004E+00   0.1991996E+01
   0.9858931E+01   0.2106444E+00   0.1863095E+01
   0.9858945E+01   0.1060888E+00   0.1861435E+01
   0.9130949E+01   0.1040447E+00   0.1990339E+01
       1       2       3       4
       5       6       7       8
       9      10      11      12
 
   ZONE T="INPUT-PANEL-IGES=   1-IFLUE=  34", N=    12, E=    3, ET=QUADRILATERAL, F=FEPOINT
   0.7649982E+01   0.1045488E+00   0.1999243E+01
   0.8389141E+01   0.1045763E+00   0.1983655E+01
   0.8389155E+01   0.2057518E-04   0.1983470E+01
   0.7649978E+01  -0.6858393E-05   0.1999059E+01
   0.8389029E+01   0.1045542E+00   0.1976896E+01
   0.9128352E+01   0.1045601E+00   0.1976228E+01
   0.9128366E+01   0.4412087E-05   0.1975307E+01
   0.8389025E+01  -0.1470696E-05   0.1975975E+01
   0.9130990E+01   0.1040407E+00   0.1990569E+01
   0.9858822E+01   0.1061007E+00   0.1860744E+01
   0.9858836E+01   0.1545004E-02   0.1859083E+01
   0.9130985E+01  -0.5150014E-03   0.1988911E+01
       1       2       3       4
       5       6       7       8
       9      10      11      12
 
   ZONE T="INPUT-PANEL-IGES=   1-IFLUE=  35", N=    12, E=    3, ET=QUADRILATERAL, F=FEPOINT
   0.7649978E+01   0.6858393E-05   0.1999059E+01
   0.8389155E+01  -0.2057518E-04   0.1983470E+01
   0.8389141E+01  -0.1045763E+00   0.1983655E+01
   0.7649982E+01  -0.1045488E+00   0.1999243E+01
   0.8389025E+01   0.1470696E-05   0.1975975E+01
   0.9128366E+01  -0.4412087E-05   0.1975307E+01
   0.9128352E+01  -0.1045601E+00   0.1976228E+01
   0.8389029E+01  -0.1045542E+00   0.1976896E+01
   0.9130985E+01   0.5150014E-03   0.1988911E+01
   0.9858836E+01  -0.1545004E-02   0.1859083E+01
   0.9858822E+01  -0.1061007E+00   0.1860744E+01
   0.9130990E+01  -0.1040407E+00   0.1990569E+01
       1       2       3       4
       5       6       7       8
       9      10      11      12
 
   ZONE T="INPUT-PANEL-IGES=   1-IFLUE=  36", N=    12, E=    3, ET=QUADRILATERAL, F=FEPOINT
   0.7649979E+01  -0.1045492E+00   0.1999060E+01
   0.8389152E+01  -0.1045753E+00   0.1984203E+01
   0.8389138E+01  -0.2091310E+00   0.1984387E+01
   0.7649983E+01  -0.2091049E+00   0.1999244E+01
   0.8389029E+01  -0.1045558E+00   0.1976720E+01
   0.9128352E+01  -0.1045555E+00   0.1976756E+01
   0.9128338E+01  -0.2091112E+00   0.1977678E+01
   0.8389034E+01  -0.2091115E+00   0.1977642E+01
   0.9130949E+01  -0.1040447E+00   0.1990339E+01
   0.9858945E+01  -0.1060888E+00   0.1861435E+01
   0.9858931E+01  -0.2106444E+00   0.1863095E+01
   0.9130954E+01  -0.2086004E+00   0.1991996E+01
       1       2       3       4
       5       6       7       8
       9      10      11      12
 
   ZONE T="INPUT-PANEL-IGES=   1-IFLUE=  37", N=    12, E=    3, ET=QUADRILATERAL, F=FEPOINT
   0.7649976E+01  -0.2091055E+00   0.1998879E+01
   0.8389159E+01  -0.2091291E+00   0.1985483E+01
   0.8389122E+01  -0.5228774E+00   0.1986037E+01
   0.7649989E+01  -0.5228538E+00   0.1999432E+01
   0.8389034E+01  -0.2091146E+00   0.1977290E+01
   0.9128337E+01  -0.2091019E+00   0.1978733E+01
   0.9128300E+01  -0.5228502E+00   0.1981497E+01
   0.8389047E+01  -0.5228629E+00   0.1980054E+01
   0.9130873E+01  -0.2086076E+00   0.1991536E+01
   0.9859174E+01  -0.2106227E+00   0.1864477E+01
   0.9859137E+01  -0.5243709E+00   0.1869460E+01
   0.9130885E+01  -0.5223560E+00   0.1996509E+01
       1       2       3       4
       5       6       7       8
       9      10      11      12
 
   ZONE T="INPUT-PANEL-IGES=   1-IFLUE=  38", N=    12, E=    3, ET=QUADRILATERAL, F=FEPOINT
   0.7649980E+01  -0.5228548E+00   0.1998884E+01
   0.8389149E+01  -0.5228745E+00   0.1987681E+01
   0.8389116E+01  -0.8366228E+00   0.1988234E+01
   0.7649991E+01  -0.8366031E+00   0.1999437E+01
   0.8389049E+01  -0.5228675E+00   0.1979526E+01
   0.9128294E+01  -0.5228362E+00   0.1983081E+01
   0.9128262E+01  -0.8365845E+00   0.1985845E+01
   0.8389059E+01  -0.8366158E+00   0.1982292E+01
   0.9130766E+01  -0.5223668E+00   0.1995818E+01
   0.9859495E+01  -0.5243383E+00   0.1871535E+01
   0.9859463E+01  -0.8380865E+00   0.1876517E+01
   0.9130776E+01  -0.8361152E+00   0.2000793E+01
       1       2       3       4
       5       6       7       8
       9      10      11      12
 
   ZONE T="INPUT-PANEL-IGES=   1-IFLUE=  39", N=    12, E=    3, ET=QUADRILATERAL, F=FEPOINT
   0.7649983E+01  -0.8366040E+00   0.1998888E+01
   0.8389139E+01  -0.8366199E+00   0.1989879E+01